
                           ***********************       
                           *  WELCOME TO SIESTA  *       
                           ***********************       

reinit: Reading from standard input
reinit: Dumped input in INPUT_TMP.98729
************************** Dump of input data file ****************************
SystemTitle CuOH
SystemLabel CuOH
SolutionMethod        diagon
SlabDipoleCorrection true
MeshCutoff          100. Ry
PAO.BasisType split
%block ChemicalSpeciesLabel
    1    1 H.mpn                   # Species index, atomic number, species label
    2    8 O.mpn                   # Species index, atomic number, species label
    3   29 Cu.mpn                  # Species index, atomic number, species label
%endblock ChemicalSpeciesLabel
%block GeometryConstraints
position from 1 to 18
%endblock GeometryConstraints
MD.TypeOfRun        CG
MD.NumCGsteps       200
MD.UseSaveCG        true
MD.UseSaveXV        true
UseSaveData         true
%block kgrid_Monkhorst_Pack
 1    0    0    0.0
 0    1    0    0.0
 0    0    1    0.0
%endblock kgrid_Monkhorst_Pack
MaxSCFIterations      300           # Maximum number of SCF iter
DM.Tolerance          1.d-4         # Tolerance in maximum difference
                                    # between input and output DM
DM.UseSaveDM          true          # to use continuation files
%include ./STRUCT.fdf
%include ./Default.fdf
************************** End of input data file *****************************

reinit: -----------------------------------------------------------------------
reinit: System Name: 
reinit: -----------------------------------------------------------------------
reinit: System Label: CuOH
reinit: -----------------------------------------------------------------------
Siesta Version: siesta-4.1--736
Architecture  : unknown
Compiler flags: mpif90 -m64 -O2 -fPIC -funroll-loops -fprefetch-loop-arrays -fno-second-underrscore -fbacktrace -ftree-vectorize  -I/bionano2/netcdf/include -I/bionano2/netcdf/../hdf5/include
PP flags      : -DMPI -DCDF -DNCDF_4 -DFC_HAVE_ABORT -DTRANSIESTA
Libraries     : libncdf.a libfdict.a  /bionano2/lib/libscalapack.a -L/bionano2/openblas/lib --lopenblas -pthread -L/bionano2/netcdf/lib -L/bionano2/hdf5/lib -lnetcdff -lnetcdf -lhdf5hl_fortran -lhdf5_fortran -lhdf5_hl -lhdf5 -lz
PARALLEL version
TRANSIESTA support
NetCDF support
NetCDF-4 support

* Running on 8 nodes in parallel
>> Start of run:   7-MAY-2018  14:24:03

initatom: Reading input for the pseudopotentials and atomic orbitals ----------
Species number:   1 Atomic number:    1 Label: H.mpn
Species number:   2 Atomic number:    8 Label: O.mpn
Species number:   3 Atomic number:   29 Label: Cu.mpn

Ground state valence configuration:   1s01
Reading pseudopotential information in unformatted form from H.mpn.vps

Pseudopotential generated from a relativistic atomic calculation
There are spin-orbit pseudopotentials available
Spin-orbit interaction is not included in this calculation

Valence configuration for pseudopotential generation:
1s( 1.00) rc: 1.25
2p( 0.00) rc: 1.25
3d( 0.00) rc: 1.25
4f( 0.00) rc: 1.19
Ground state valence configuration:   2s02  2p04
Reading pseudopotential information in unformatted form from O.mpn.vps

Pseudopotential generated from a relativistic atomic calculation
There are spin-orbit pseudopotentials available
Spin-orbit interaction is not included in this calculation

Valence configuration for pseudopotential generation:
2s( 2.00) rc: 1.14
2p( 4.00) rc: 1.14
3d( 0.00) rc: 1.14
4f( 0.00) rc: 1.10
Ground state valence configuration:   4s01  3d10
Reading pseudopotential information in unformatted form from Cu.mpn.vps

Pseudopotential generated from a relativistic atomic calculation
There are spin-orbit pseudopotentials available
Spin-orbit interaction is not included in this calculation

Valence configuration for pseudopotential generation:
4s( 1.00) rc: 2.08
4p( 0.00) rc: 2.08
3d(10.00) rc: 2.08
4f( 0.00) rc: 2.08
For H.mpn, standard SIESTA heuristics set lmxkb to 2
 (one more than the basis l, including polarization orbitals).
Use PS.lmax or PS.KBprojectors blocks to override.
For O.mpn, standard SIESTA heuristics set lmxkb to 3
 (one more than the basis l, including polarization orbitals).
Use PS.lmax or PS.KBprojectors blocks to override.
For Cu.mpn, standard SIESTA heuristics set lmxkb to 3
 (one more than the basis l, including polarization orbitals).
Use PS.lmax or PS.KBprojectors blocks to override.

<basis_specs>
===============================================================================
H.mpn                Z=   1    Mass=  1.0100        Charge= 0.17977+309
Lmxo=0 Lmxkb= 2    BasisType=split      Semic=F
L=0  Nsemic=0  Cnfigmx=1
          n=1  nzeta=1  polorb=1
            splnorm:   0.15000    
               vcte:    0.0000    
               rinn:    0.0000    
               qcoe:    0.0000    
               qyuk:    0.0000    
               qwid:   0.10000E-01
                rcs:    0.0000    
            lambdas:    1.0000    
-------------------------------------------------------------------------------
L=0  Nkbl=1  erefs: 0.17977+309
L=1  Nkbl=1  erefs: 0.17977+309
L=2  Nkbl=1  erefs: 0.17977+309
===============================================================================
</basis_specs>

atom: Called for H.mpn                 (Z =   1)

read_vps: Pseudopotential generation method:
read_vps: ATM3      Troullier-Martins                       
Total valence charge:    1.00000

xc_check: Exchange-correlation functional:
xc_check: GGA Perdew, Burke & Ernzerhof 1996
V l=0 = -2*Zval/r beyond r=  1.2343
V l=1 = -2*Zval/r beyond r=  1.2189
V l=2 = -2*Zval/r beyond r=  1.2189
All V_l potentials equal beyond r=  1.2343
This should be close to max(r_c) in ps generation
All pots = -2*Zval/r beyond r=  1.2343

VLOCAL1: 99.0% of the norm of Vloc inside     28.493 Ry
VLOCAL1: 99.9% of the norm of Vloc inside     64.935 Ry
atom: Maximum radius for 4*pi*r*r*local-pseudopot. charge    1.45251
atom: Maximum radius for r*vlocal+2*Zval:    1.21892
GHOST: No ghost state for L =  0
GHOST: No ghost state for L =  1
GHOST: No ghost state for L =  2

KBgen: Kleinman-Bylander projectors: 
   l= 0   rc=  1.398961   el= -0.477184   Ekb= -2.022489   kbcos= -0.344760
   l= 1   rc=  1.730774   el=  0.001076   Ekb= -0.447448   kbcos= -0.022756
   l= 2   rc=  2.036604   el=  0.002010   Ekb= -0.163621   kbcos= -0.002660

KBgen: Total number of  Kleinman-Bylander projectors:    9
atom: -------------------------------------------------------------------------

atom: SANKEY-TYPE ORBITALS:

SPLIT: Orbitals with angular momentum L= 0

SPLIT: Basis orbitals for state 1s

SPLIT: PAO cut-off radius determined from an
SPLIT: energy shift=  0.010000 Ry

   izeta = 1
                 lambda =    1.000000
                     rc =    5.204501
                 energy =   -0.466856
                kinetic =    0.935621
    potential(screened) =   -1.402477
       potential(ionic) =   -1.927189

POLgen: Perturbative polarization orbital with L=  1

POLgen: Polarization orbital for state 1s

   izeta = 1
                     rc =    5.204501
                 energy =    0.666830
                kinetic =    1.331346
    potential(screened) =   -0.664516
       potential(ionic) =   -1.147041
atom: Total number of Sankey-type orbitals:  4

atm_pop: Valence configuration (for local Pseudopot. screening):
 1s( 1.00)                                                            
Vna: chval, zval:    1.00000   1.00000

Vna:  Cut-off radius for the neutral-atom potential:   5.204501

atom: _________________________________________________________________________

<basis_specs>
===============================================================================
O.mpn                Z=   8    Mass=  16.000        Charge= 0.17977+309
Lmxo=1 Lmxkb= 3    BasisType=split      Semic=F
L=0  Nsemic=0  Cnfigmx=2
          n=1  nzeta=1  polorb=0
            splnorm:   0.15000    
               vcte:    0.0000    
               rinn:    0.0000    
               qcoe:    0.0000    
               qyuk:    0.0000    
               qwid:   0.10000E-01
                rcs:    0.0000    
            lambdas:    1.0000    
L=1  Nsemic=0  Cnfigmx=2
          n=1  nzeta=1  polorb=1
            splnorm:   0.15000    
               vcte:    0.0000    
               rinn:    0.0000    
               qcoe:    0.0000    
               qyuk:    0.0000    
               qwid:   0.10000E-01
                rcs:    0.0000    
            lambdas:    1.0000    
-------------------------------------------------------------------------------
L=0  Nkbl=1  erefs: 0.17977+309
L=1  Nkbl=1  erefs: 0.17977+309
L=2  Nkbl=1  erefs: 0.17977+309
L=3  Nkbl=1  erefs: 0.17977+309
===============================================================================
</basis_specs>

atom: Called for O.mpn                 (Z =   8)

read_vps: Pseudopotential generation method:
read_vps: ATM3      Troullier-Martins                       
Total valence charge:    6.00000

xc_check: Exchange-correlation functional:
xc_check: GGA Perdew, Burke & Ernzerhof 1996
V l=0 = -2*Zval/r beyond r=  1.1420
V l=1 = -2*Zval/r beyond r=  1.1420
V l=2 = -2*Zval/r beyond r=  1.1420
V l=3 = -2*Zval/r beyond r=  1.1420
All V_l potentials equal beyond r=  1.1278
This should be close to max(r_c) in ps generation
All pots = -2*Zval/r beyond r=  1.1420

VLOCAL1: 99.0% of the norm of Vloc inside     34.126 Ry
VLOCAL1: 99.9% of the norm of Vloc inside     77.774 Ry
atom: Maximum radius for 4*pi*r*r*local-pseudopot. charge    1.37759
atom: Maximum radius for r*vlocal+2*Zval:    1.18566
GHOST: No ghost state for L =  0
GHOST: No ghost state for L =  1
GHOST: No ghost state for L =  2
GHOST: No ghost state for L =  3

KBgen: Kleinman-Bylander projectors: 
   l= 0   rc=  1.278025   el= -1.759792   Ekb=  9.084139   kbcos=  0.329569
   l= 1   rc=  1.262145   el= -0.663799   Ekb= -7.981946   kbcos= -0.392569
   l= 2   rc=  1.791199   el=  0.002031   Ekb= -1.973642   kbcos= -0.003480
   l= 3   rc=  2.055271   el=  0.003153   Ekb= -1.003879   kbcos= -0.000308

KBgen: Total number of  Kleinman-Bylander projectors:   16
atom: -------------------------------------------------------------------------

atom: SANKEY-TYPE ORBITALS:

SPLIT: Orbitals with angular momentum L= 0

SPLIT: Basis orbitals for state 2s

SPLIT: PAO cut-off radius determined from an
SPLIT: energy shift=  0.010000 Ry

   izeta = 1
                 lambda =    1.000000
                     rc =    3.562532
                 energy =   -1.750551
                kinetic =    1.600007
    potential(screened) =   -3.350559
       potential(ionic) =  -11.292263

SPLIT: Orbitals with angular momentum L= 1

SPLIT: Basis orbitals for state 2p

SPLIT: PAO cut-off radius determined from an
SPLIT: energy shift=  0.010000 Ry

   izeta = 1
                 lambda =    1.000000
                     rc =    4.351355
                 energy =   -0.654641
                kinetic =    4.876734
    potential(screened) =   -5.531375
       potential(ionic) =  -13.241687

POLgen: Perturbative polarization orbital with L=  2

POLgen: Polarization orbital for state 2p

   izeta = 1
                     rc =    4.351355
                 energy =    2.226578
                kinetic =    4.384292
    potential(screened) =   -2.157714
       potential(ionic) =   -8.277794
atom: Total number of Sankey-type orbitals:  9

atm_pop: Valence configuration (for local Pseudopot. screening):
 2s( 2.00)                                                            
 2p( 4.00)                                                            
Vna: chval, zval:    6.00000   6.00000

Vna:  Cut-off radius for the neutral-atom potential:   4.351355

atom: _________________________________________________________________________

<basis_specs>
===============================================================================
Cu.mpn               Z=  29    Mass=  63.550        Charge= 0.17977+309
Lmxo=2 Lmxkb= 3    BasisType=split      Semic=F
L=0  Nsemic=0  Cnfigmx=4
          n=1  nzeta=1  polorb=1
            splnorm:   0.15000    
               vcte:    0.0000    
               rinn:    0.0000    
               qcoe:    0.0000    
               qyuk:    0.0000    
               qwid:   0.10000E-01
                rcs:    0.0000    
            lambdas:    1.0000    
L=1  Nsemic=0  Cnfigmx=4
L=2  Nsemic=0  Cnfigmx=3
          n=1  nzeta=1  polorb=0
            splnorm:   0.15000    
               vcte:    0.0000    
               rinn:    0.0000    
               qcoe:    0.0000    
               qyuk:    0.0000    
               qwid:   0.10000E-01
                rcs:    0.0000    
            lambdas:    1.0000    
-------------------------------------------------------------------------------
L=0  Nkbl=1  erefs: 0.17977+309
L=1  Nkbl=1  erefs: 0.17977+309
L=2  Nkbl=1  erefs: 0.17977+309
L=3  Nkbl=1  erefs: 0.17977+309
===============================================================================
</basis_specs>

atom: Called for Cu.mpn                (Z =  29)

read_vps: Pseudopotential generation method:
read_vps: ATM3      Troullier-Martins                       
Total valence charge:   11.00000

read_vps: Pseudopotential includes a core correction:
read_vps: Pseudo-core for xc-correction

xc_check: Exchange-correlation functional:
xc_check: GGA Perdew, Burke & Ernzerhof 1996
V l=0 = -2*Zval/r beyond r=  2.4785
V l=1 = -2*Zval/r beyond r=  2.4785
V l=2 = -2*Zval/r beyond r=  2.4785
V l=3 = -2*Zval/r beyond r=  2.4785
All V_l potentials equal beyond r=  2.0548
This should be close to max(r_c) in ps generation
All pots = -2*Zval/r beyond r=  2.4785

VLOCAL1: 99.0% of the norm of Vloc inside     10.281 Ry
VLOCAL1: 99.9% of the norm of Vloc inside     23.431 Ry
atom: Maximum radius for 4*pi*r*r*local-pseudopot. charge    2.50972
atom: Maximum radius for r*vlocal+2*Zval:    2.18729
GHOST: No ghost state for L =  0
GHOST: No ghost state for L =  1
GHOST: No ghost state for L =  2
GHOST: No ghost state for L =  3

KBgen: Kleinman-Bylander projectors: 
   l= 0   rc=  2.705191   el= -0.337844   Ekb=  4.761305   kbcos=  0.232453
   l= 1   rc=  2.773676   el= -0.051303   Ekb=  2.177609   kbcos=  0.174687
   l= 2   rc=  2.417343   el= -0.371311   Ekb=-13.400289   kbcos= -0.707855
   l= 3   rc=  3.065395   el=  0.003068   Ekb= -1.054831   kbcos= -0.005162

KBgen: Total number of  Kleinman-Bylander projectors:   16
atom: -------------------------------------------------------------------------

atom: SANKEY-TYPE ORBITALS:

SPLIT: Orbitals with angular momentum L= 0

SPLIT: Basis orbitals for state 4s

SPLIT: PAO cut-off radius determined from an
SPLIT: energy shift=  0.010000 Ry

   izeta = 1
                 lambda =    1.000000
                     rc =    7.082961
                 energy =   -0.328771
                kinetic =    0.323755
    potential(screened) =   -0.652526
       potential(ionic) =   -8.775741

SPLIT: Orbitals with angular momentum L= 2

SPLIT: Basis orbitals for state 3d

SPLIT: PAO cut-off radius determined from an
SPLIT: energy shift=  0.010000 Ry

   izeta = 1
                 lambda =    1.000000
                     rc =    4.086477
                 energy =   -0.361987
                kinetic =   10.344957
    potential(screened) =  -10.706943
       potential(ionic) =  -25.502936

POLgen: Perturbative polarization orbital with L=  1

POLgen: Polarization orbital for state 4s

   izeta = 1
                     rc =    7.082961
                 energy =    0.014970
                kinetic =    0.605069
    potential(screened) =   -0.590099
       potential(ionic) =   -7.918456
atom: Total number of Sankey-type orbitals:  9

atm_pop: Valence configuration (for local Pseudopot. screening):
 4s( 1.00)                                                            
 4p( 0.00)                                                            
 3d(10.00)                                                            
Vna: chval, zval:   11.00000  11.00000

Vna:  Cut-off radius for the neutral-atom potential:   7.082961
comcore: Pseudo-core radius Rcore=  3.430408

atom: _________________________________________________________________________

prinput: Basis input ----------------------------------------------------------

PAO.BasisType split     

%block ChemicalSpeciesLabel
    1    1 H.mpn                   # Species index, atomic number, species label
    2    8 O.mpn                   # Species index, atomic number, species label
    3   29 Cu.mpn                  # Species index, atomic number, species label
%endblock ChemicalSpeciesLabel

%block PAO.Basis                 # Define Basis set
H.mpn                 1                    # Species label, number of l-shells
 n=1   0   1 P   1                   # n, l, Nzeta, Polarization, NzetaPol
   5.205   
   1.000   
O.mpn                 2                    # Species label, number of l-shells
 n=2   0   1                         # n, l, Nzeta 
   3.563   
   1.000   
 n=2   1   1 P   1                   # n, l, Nzeta, Polarization, NzetaPol
   4.351   
   1.000   
Cu.mpn                2                    # Species label, number of l-shells
 n=4   0   1 P   1                   # n, l, Nzeta, Polarization, NzetaPol
   7.083   
   1.000   
 n=3   2   1                         # n, l, Nzeta 
   4.086   
   1.000   
%endblock PAO.Basis

prinput: ----------------------------------------------------------------------

Dumping basis to NetCDF file H.mpn.ion.nc
Dumping basis to NetCDF file O.mpn.ion.nc
Dumping basis to NetCDF file Cu.mpn.ion.nc
coor:   Atomic-coordinates input format  =     Cartesian coordinates
coor:                                          (in Angstroms)

siesta: WARNING: XV file not found

siesta: Atomic coordinates (Bohr) and species
siesta:      0.00000   6.88980   0.00000  3        1
siesta:      4.87182   6.88980   0.00000  3        2
siesta:      9.74365   6.88980   0.00000  3        3
siesta:      0.00000  13.77960   0.00000  3        4
siesta:      4.87182  13.77960   0.00000  3        5
siesta:      9.74365  13.77960   0.00000  3        6
siesta:      0.00000  20.66940   0.00000  3        7
siesta:      4.87182  20.66940   0.00000  3        8
siesta:      9.74365  20.66940   0.00000  3        9
siesta:     -2.43591   3.44490   2.43591  3       10
siesta:      2.43591   3.44490   2.43591  3       11
siesta:      7.30774   3.44490   2.43591  3       12
siesta:     -2.43591  10.33470   2.43591  3       13
siesta:      2.43601  10.33470   2.43591  3       14
siesta:      7.30774  10.33470   2.43591  3       15
siesta:     -2.43591  17.22450   2.43591  3       16
siesta:      2.43601  17.22450   2.43591  3       17
siesta:      7.30774  17.22450   2.43591  3       18
siesta:      0.00334  20.66954   4.86087  3       19
siesta:      0.00535  13.78692   4.81684  3       20
siesta:      9.74416  20.67091   4.86056  3       21
siesta:      4.87652  20.67076   4.86075  3       22
siesta:      4.87074  13.78240   4.84205  3       23
siesta:      9.75343  13.78220   4.84224  3       24
siesta:      0.00428   6.88899   4.82225  3       25
siesta:      4.86861   6.89336   4.84392  3       26
siesta:      9.75568   6.89315   4.84500  3       27
siesta:      7.31313  17.22107   7.06419  3       28
siesta:      2.49440  10.31987   7.16801  3       29
siesta:     -2.47524  10.32079   7.16915  3       30
siesta:      7.31388   3.44977   7.06089  3       31
siesta:      7.31666  10.33609   7.03357  3       32
siesta:     -2.43121   3.44719   7.05717  3       33
siesta:      2.44270   3.44737   7.05764  3       34
siesta:      2.43460  17.23191   7.06981  3       35
siesta:     -2.42613  17.23080   7.06939  3       36
siesta:      0.01650  11.00386   9.89915  2       37
siesta:      0.01903  12.87663   9.97573  1       38

siesta: System type = slab      

initatomlists: Number of atoms, orbitals, and projectors:     38   337   601

siesta: ******************** Simulation parameters ****************************
siesta:
siesta: The following are some of the parameters of the simulation.
siesta: A complete list of the parameters used, including default values,
siesta: can be found in file out.fdf
siesta:
redata: Spin configuration                          = none
redata: Number of spin components                   = 1
redata: Time-Reversal Symmetry                      = T
redata: Spin-spiral                                 = F
redata: Long output                                 =   T
redata: Number of Atomic Species                    =        3
redata: Charge density info will appear in .RHO file
redata: Write Mulliken Pop.                         = Atomic and Orbital charges
redata: Mesh Cutoff                                 =   100.0000 Ry
redata: Net charge of the system                    =     0.0000 |e|
redata: Min. number of SCF Iter                     =        0
redata: Max. number of SCF Iter                     =      300
redata: SCF mix quantity                            = Hamiltonian
redata: Mix DM or H after convergence               =   F
redata: Recompute H after scf cycle                 =   F
redata: Mix DM in first SCF step                    =   T
redata: Write Pulay info on disk                    =   F
redata: New DM Mixing Weight                        =     0.1000
redata: New DM Occupancy tolerance                  = 0.000000000001
redata: No kicks to SCF
redata: DM Mixing Weight for Kicks                  =     0.5000
redata: Require Harris convergence for SCF          =   F
redata: Harris energy tolerance for SCF             =     0.000100 eV
redata: Require DM convergence for SCF              =   T
redata: DM tolerance for SCF                        =     0.0001
redata: Require EDM convergence for SCF             =   F
redata: EDM tolerance for SCF                       =     0.001000 eV
redata: Require H convergence for SCF               =   T
redata: Hamiltonian tolerance for SCF               =     0.001000 eV
redata: Require (free) Energy convergence for SCF   =   F
redata: (free) Energy tolerance for SCF             =     0.000100 eV
redata: Using Saved Data (generic)                  =   T
redata: Use continuation files for DM               =   T
redata: Neglect nonoverlap interactions             =   F
redata: Method of Calculation                       = Diagonalization
redata: Divide and Conquer                          =   T
redata: Electronic Temperature                      =   299.9869 K
redata: Fix the spin of the system                  =   F
redata: Dynamics option                             = CG coord. optimization
redata: Variable cell                               =   F
redata: Use continuation files for CG               =   T
redata: Max atomic displ per move                   =     0.1058 Ang
redata: Maximum number of CG moves                  =      200
redata: Force tolerance                             =     0.0200 eV/Ang
mix.SCF: Pulay mixing                            = Pulay
mix.SCF:    Variant                              = stable
mix.SCF:    History steps                        = 5
mix.SCF:    Linear mixing weight                 =     0.100000
mix.SCF:    Mixing weight                        =     0.100000
mix.SCF:    SVD condition                        = 0.1000E-07
redata: Save all siesta data in one NC              =   F
redata: ***********************************************************************

%block SCF.Mixers
  Pulay
%endblock SCF.Mixers

%block SCF.Mixer.Pulay
  # Mixing method
  method pulay
  variant stable

  # Mixing options
  weight 0.1000
  weight.linear 0.1000
  history 5
%endblock SCF.Mixer.Pulay

DM_history_depth set to one: no extrapolation allowed by default for geometry relaxation
Size of DM history Fstack: 1
Total number of electrons:   403.000000
Total ionic charge:   403.000000

* ProcessorY, Blocksize:    2  24


* Orbital distribution balance (max,min):    48    24

 Kpoints in:            1 . Kpoints trimmed:            1

siesta: k-point coordinates (Bohr**-1) and weights:
siesta:    1    0.000000    0.000000    0.000000       1.000000

siesta: k-grid: Number of k-points =     1
siesta: k-grid: Cutoff (effective) =     3.867 Ang
siesta: k-grid: Supercell and displacements
siesta: k-grid:    1   0   0      0.000
siesta: k-grid:    0   1   0      0.000
siesta: k-grid:    0   0   1      0.000

siesta: Constraint (18): pos
  [ 1 -- 18 ]

 Kpoints in:            1 . Kpoints trimmed:            1

transiesta: ts_k-point coordinates (Bohr**-1) and weights:
transiesta:    1    0.000000    0.000000    0.000000       1.000000

transiesta: k-grid: Number of Green function k-points =     1
transiesta: k-grid: Supercell and displacements
transiesta: k-grid:    1   0   0      0.000
transiesta: k-grid:    0   1   0      0.000
transiesta: k-grid:    0   0   1      0.000

ts: **************************************************************
ts: Save H and S matrices                           =    T
ts: Save DM and EDM matrices                        =    F
ts: Fix Hartree potential                           =    F
ts: Only save the overlap matrix S                  =    F
ts: **************************************************************

************************ Begin: TS CHECKS AND WARNINGS ************************
************************ End: TS CHECKS AND WARNINGS **************************


                     ====================================
                        Begin CG opt. move =      0
                     ====================================

outcoor: Atomic coordinates (Ang):                          
    0.00000000    3.64592370    0.00000000   3       1  Cu.mpn
    2.57805737    3.64592370    0.00000000   3       2  Cu.mpn
    5.15611474    3.64592370    0.00000000   3       3  Cu.mpn
    0.00000000    7.29184739    0.00000000   3       4  Cu.mpn
    2.57805737    7.29184739    0.00000000   3       5  Cu.mpn
    5.15611474    7.29184739    0.00000000   3       6  Cu.mpn
    0.00000000   10.93777108    0.00000000   3       7  Cu.mpn
    2.57805737   10.93777108    0.00000000   3       8  Cu.mpn
    5.15611474   10.93777108    0.00000000   3       9  Cu.mpn
   -1.28902868    1.82296185    1.28902868   3      10  Cu.mpn
    1.28902868    1.82296185    1.28902868   3      11  Cu.mpn
    3.86708605    1.82296185    1.28902868   3      12  Cu.mpn
   -1.28902868    5.46888554    1.28902868   3      13  Cu.mpn
    1.28908160    5.46888554    1.28902868   3      14  Cu.mpn
    3.86708605    5.46888554    1.28902868   3      15  Cu.mpn
   -1.28902868    9.11480924    1.28902868   3      16  Cu.mpn
    1.28908160    9.11480924    1.28902868   3      17  Cu.mpn
    3.86708605    9.11480924    1.28902868   3      18  Cu.mpn
    0.00176538   10.93784665    2.57225827   3      19  Cu.mpn
    0.00283240    7.29572333    2.54896064   3      20  Cu.mpn
    5.15638706   10.93857013    2.57209885   3      21  Cu.mpn
    2.58054373   10.93848904    2.57219605   3      22  Cu.mpn
    2.57748301    7.29332693    2.56230202   3      23  Cu.mpn
    5.16128982    7.29322276    2.56240341   3      24  Cu.mpn
    0.00226426    3.64549605    2.55182443   3      25  Cu.mpn
    2.57635714    3.64780604    2.56328953   3      26  Cu.mpn
    5.16248319    3.64769396    2.56386156   3      27  Cu.mpn
    3.86993888    9.11299473    3.73820806   3      28  Cu.mpn
    1.31997959    5.46104027    3.79314802   3      29  Cu.mpn
   -1.30983969    5.46152725    3.79374831   3      30  Cu.mpn
    3.87033799    1.82553695    3.73645916   3      31  Cu.mpn
    3.87180558    5.46962181    3.72200391   3      32  Cu.mpn
   -1.28654199    1.82417299    3.73449028   3      33  Cu.mpn
    1.29262258    1.82426920    3.73474188   3      34  Cu.mpn
    1.28833444    9.11873182    3.74117939   3      35  Cu.mpn
   -1.28385136    9.11814071    3.74095868   3      36  Cu.mpn
    0.00873297    5.82298950    5.23840317   2      37  O.mpn
    0.01006885    6.81401533    5.27892651   1      38  H.mpn

outcell: Unit cell vectors (Ang):
        7.734172    0.000000    0.000000
        0.000000   10.937771    0.000000
        0.000000    0.000000   13.078057

outcell: Cell vector modules (Ang)   :    7.734172   10.937771   13.078057
outcell: Cell angles (23,13,12) (deg):     90.0000     90.0000     90.0000
outcell: Cell volume (Ang**3)        :   1106.3331
 Folding of H and S is implicitly performed
<dSpData1D:S at geom step 0
  <sparsity:sparsity for geom step 0
    nrows_g=337 nrows=48 sparsity=.1386 nnzs=15743, refcount: 7>
  <dData1D:(new from dSpData1D) n=15743, refcount: 1>
refcount: 1>
new_DM -- step:     1
Initializing Density Matrix...

Attempting to read DM from file... Failed...
DM filled with atomic data:
<dSpData2D:DM initialized from atoms
  <sparsity:sparsity for geom step 0
    nrows_g=337 nrows=48 sparsity=.1386 nnzs=15743, refcount: 8>
  <dData2D:DM n=15743 m=1, refcount: 1>
refcount: 1>

No. of atoms with KB's overlaping orbs in proc 0. Max # of overlaps:      38     237
New grid distribution:   1
           1       1:   24    1:   18    1:   10
           2       1:   24    1:   18   11:   20
           3       1:   24    1:   18   21:   30
           4       1:   24    1:   18   31:   40
           5       1:   24   19:   36    1:   10
           6       1:   24   19:   36   11:   20
           7       1:   24   19:   36   21:   30
           8       1:   24   19:   36   31:   40

InitMesh: MESH =    48 x    72 x    80 =      276480
InitMesh: (bp) =    24 x    36 x    40 =       34560
InitMesh: Mesh cutoff (required, used) =   100.000   103.418 Ry
ExtMesh (bp) on 0 =    72 x    70 x    58 =      292320
New grid distribution:   2
           1       1:   12   19:   36    9:   40
           2      13:   24    1:   18    9:   40
           3      13:   24    1:   18    1:    8
           4      13:   24   19:   36    1:    8
           5       1:   12    1:   18    9:   40
           6      13:   24   19:   36    9:   40
           7       1:   12    1:   18    1:    8
           8       1:   12   19:   36    1:    8
New grid distribution:   3
           1       1:   12   19:   36   18:   40
           2      13:   24    1:   18    1:   17
           3      13:   24    1:   18   18:   40
           4      13:   24   19:   36    1:   17
           5       1:   12    1:   18   18:   40
           6       1:   12    1:   18    1:   17
           7      13:   24   19:   36   18:   40
           8       1:   12   19:   36    1:   17
Setting up quadratic distribution...
ExtMesh (bp) on 0 =    60 x    70 x    80 =      336000
PhiOnMesh: Number of (b)points on node 0 =                 6912
PhiOnMesh: nlist on node 0 =               208879

efield: SlabDipoleCorrection enabled.
efield: A dipole layer will be introduced in the vacuum
efield: region to compensate the system dipole
Dipole moment in unit cell   =     -0.0000      0.0000      0.0000 D
Electric field for dipole correction =    0.000000   -0.000000   -0.000000 eV/Ang/e

stepf: Fermi-Dirac step function
Dipole moment in unit cell   =     -0.0000      0.0000      6.2912 D
Electric field for dipole correction =    0.000000   -0.000000   -0.214232 eV/Ang/e

siesta: Program's energy decomposition (eV):
siesta: Ebs     =     -7880.135797
siesta: Eions   =     52362.821533
siesta: Ena     =       742.347304
siesta: Ekin    =     44355.106699
siesta: Enl     =    -28714.296964
siesta: Eso     =         0.000000
siesta: Eldau   =         0.000000
siesta: DEna    =       609.995610
siesta: DUscf   =       380.482951
siesta: DUext   =         0.140300
siesta: Exc     =    -19457.460018
siesta: eta*DQ  =         0.000000
siesta: Emadel  =         0.000000
siesta: Emeta   =         0.000000
siesta: Emolmec =         0.000000
siesta: Ekinion =         0.000000
siesta: Eharris =    -53943.550540
siesta: Etot    =    -54446.505652
siesta: FreeEng =    -54446.640496

        iscf     Eharris(eV)        E_KS(eV)     FreeEng(eV)     dDmax    Ef(eV) dHmax(eV)
   scf:    1   -53943.550540   -54446.505652   -54446.640496  0.566128 -0.339000 27.300996
timer: Routine,Calls,Time,% = IterSCF        1       1.012  16.68
Dipole moment in unit cell   =      0.0000     -0.0000    -49.5615 D
Electric field for dipole correction =   -0.000000    0.000000    1.687686 eV/Ang/e
   scf:    2   -54558.295216   -54584.355143   -54584.533170  0.340209 -1.992256 25.195746
Dipole moment in unit cell   =     -0.0000      0.0000     96.8317 D
Electric field for dipole correction =    0.000000   -0.000000   -3.297349 eV/Ang/e
   scf:    3   -54262.869647   -54540.549040   -54540.650879  0.306048 -2.388840 28.612527
Dipole moment in unit cell   =     -0.0000      0.0000      4.6401 D
Electric field for dipole correction =    0.000000   -0.000000   -0.158006 eV/Ang/e
   scf:    4   -54694.230205   -54664.094527   -54664.155177  0.223863 -2.707843  6.501684
Dipole moment in unit cell   =     -0.0000      0.0000      1.0341 D
Electric field for dipole correction =    0.000000   -0.000000   -0.035214 eV/Ang/e
   scf:    5   -54692.742532   -54681.046724   -54681.117241  0.126396 -3.129214  3.120648
Dipole moment in unit cell   =      0.0000     -0.0000     -1.8336 D
Electric field for dipole correction =   -0.000000    0.000000    0.062439 eV/Ang/e
   scf:    6   -54689.590550   -54685.801188   -54685.862636  0.047671 -3.332626  1.290979
Dipole moment in unit cell   =      0.0000     -0.0000     -1.9222 D
Electric field for dipole correction =   -0.000000    0.000000    0.065454 eV/Ang/e
   scf:    7   -54688.585307   -54687.255707   -54687.316242  0.022825 -3.392885  1.038412
Dipole moment in unit cell   =      0.0000     -0.0000     -1.6363 D
Electric field for dipole correction =   -0.000000    0.000000    0.055720 eV/Ang/e
   scf:    8   -54689.969630   -54688.994828   -54689.054499  0.053527 -3.492028  0.518596
Dipole moment in unit cell   =      0.0000     -0.0000     -0.8448 D
Electric field for dipole correction =   -0.000000    0.000000    0.028769 eV/Ang/e
   scf:    9   -54689.035825   -54689.026892   -54689.086698  0.008259 -3.467744  0.182976
Dipole moment in unit cell   =      0.0000     -0.0000     -1.0586 D
Electric field for dipole correction =   -0.000000    0.000000    0.036048 eV/Ang/e
   scf:   10   -54689.029478   -54689.028614   -54689.088415  0.001342 -3.463661  0.174951
Dipole moment in unit cell   =      0.0000     -0.0000     -0.9751 D
Electric field for dipole correction =   -0.000000    0.000000    0.033204 eV/Ang/e
   scf:   11   -54689.029459   -54689.029563   -54689.089417  0.001585 -3.449427  0.097469
Dipole moment in unit cell   =      0.0000     -0.0000     -1.0114 D
Electric field for dipole correction =   -0.000000    0.000000    0.034440 eV/Ang/e
   scf:   12   -54689.030752   -54689.030227   -54689.090097  0.001337 -3.445855  0.064036
Dipole moment in unit cell   =      0.0000     -0.0000     -0.9868 D
Electric field for dipole correction =   -0.000000    0.000000    0.033601 eV/Ang/e
   scf:   13   -54689.030796   -54689.030575   -54689.090480  0.001185 -3.440160  0.019029
Dipole moment in unit cell   =      0.0000     -0.0000     -0.9905 D
Electric field for dipole correction =   -0.000000    0.000000    0.033729 eV/Ang/e
   scf:   14   -54689.030774   -54689.030682   -54689.090603  0.000325 -3.438039  0.013437
Dipole moment in unit cell   =      0.0000     -0.0000     -0.9807 D
Electric field for dipole correction =   -0.000000    0.000000    0.033397 eV/Ang/e
   scf:   15   -54689.030760   -54689.030732   -54689.090675  0.000440 -3.434791  0.003929
Dipole moment in unit cell   =      0.0000     -0.0000     -0.9803 D
Electric field for dipole correction =   -0.000000    0.000000    0.033381 eV/Ang/e
   scf:   16   -54689.030740   -54689.030737   -54689.090681  0.000096 -3.434391  0.003277
Dipole moment in unit cell   =      0.0000     -0.0000     -0.9787 D
Electric field for dipole correction =   -0.000000    0.000000    0.033326 eV/Ang/e
   scf:   17   -54689.030747   -54689.030742   -54689.090686  0.000091 -3.434242  0.001967
Dipole moment in unit cell   =      0.0000     -0.0000     -0.9769 D
Electric field for dipole correction =   -0.000000    0.000000    0.033266 eV/Ang/e
   scf:   18   -54689.030746   -54689.030744   -54689.090687  0.000063 -3.434169  0.000873

SCF Convergence by DM+H criterion
max |DM_out - DM_in|         :     0.0000627831
max |H_out - H_in|      (eV) :     0.0008730167
SCF cycle converged after 18 iterations

Using DM_out to compute the final energy and forces
No. of atoms with KB's overlaping orbs in proc 0. Max # of overlaps:      38     237
Dipole moment in unit cell   =      0.0000     -0.0000     -0.9769 D
Electric field for dipole correction =   -0.000000    0.000000    0.033266 eV/Ang/e

siesta: E_KS(eV) =           -54689.0307

siesta: E_KS - E_eggbox =    -54689.0307

siesta: Atomic forces (eV/Ang):
     1   -0.000350   -0.066996    0.126436
     2   -0.000941   -0.078069    0.207771
     3   -0.000297   -0.078222    0.209790
     4   -0.000197    0.067223    0.162072
     5    0.007084    0.076743    0.206445
     6   -0.008493    0.076964    0.207064
     7   -0.000511   -0.033793    0.292627
     8    0.177231    0.025990    0.118457
     9   -0.177687    0.026292    0.116203
    10    0.013649   -0.018914   -0.440991
    11   -0.008956   -0.019059   -0.439735
    12    0.003583   -0.029654   -0.484169
    13    0.007374   -0.002482   -0.202277
    14   -0.002019   -0.002655   -0.205697
    15    0.003656   -0.013290   -0.434792
    16    0.031433    0.033877   -0.419861
    17   -0.027406    0.034460   -0.420195
    18    0.003688    0.037460   -0.423952
    19   -0.018379   -0.000715    0.663570
    20   -0.015519    0.014365    0.307153
    21   -0.005503   -0.023671    0.655365
    22   -0.017589   -0.023198    0.655911
    23    0.034058    0.062801    0.618246
    24   -0.062294    0.061223    0.612848
    25   -0.010853   -0.028213    0.374838
    26    0.066414   -0.033698    0.614585
    27   -0.097844   -0.031157    0.610313
    28   -0.042288   -0.052687    0.736555
    29   -0.363390    0.010488    0.187549
    30    0.306907    0.012779    0.149398
    31   -0.047571    0.087417    0.772816
    32   -0.048972    0.046226    1.100294
    33    0.012846    0.007262    0.868842
    34   -0.094404    0.006284    0.864528
    35   -0.023271   -0.000035    0.779313
    36   -0.039018    0.000397    0.778946
    37   -0.142619   -1.924163   -0.395532
    38   -0.001176    1.766548   -0.027575
----------------------------------------
   Tot   -0.589623   -0.005872    9.103159
----------------------------------------
   Max    1.924163
   Res    0.389760    sqrt( Sum f_i^2 / 3N )
----------------------------------------
   Max    1.924163    constrained

Stress-tensor-Voigt (kbar):      -15.17       -5.11      -22.36        0.01        0.28        0.01
(Free)E + p*V (eV/cell)   -54679.2762
Target enthalpy (eV/cell)   -54689.0907

mulliken: Atomic and Orbital Populations:

Species: H.mpn               
Atom  Qatom  Qorb
               1s      1Ppy    1Ppz    1Ppx    
  38  0.866   0.665   0.060   0.079   0.062

Species: O.mpn               
Atom  Qatom  Qorb
               2s      2py     2pz     2px     2Pdxy   2Pdyz   2Pdz2   2Pdxz   
               2Pdx2-y2
  37  6.462   1.763   1.403   1.635   1.625   0.002   0.004   0.011   0.003
              0.017

Species: Cu.mpn              
Atom  Qatom  Qorb
               4s      3dxy    3dyz    3dz2    3dxz    3dx2-y2 4Ppy    4Ppz    
               4Ppx    
   1 10.955   0.827   1.896   1.944   1.927   1.947   1.917   0.158   0.121
              0.217
   2 10.948   0.820   1.899   1.944   1.926   1.947   1.916   0.163   0.120
              0.214
   3 10.948   0.820   1.899   1.944   1.926   1.947   1.916   0.163   0.120
              0.214
   4 10.953   0.826   1.895   1.944   1.928   1.946   1.917   0.160   0.125
              0.212
   5 10.948   0.818   1.899   1.944   1.926   1.946   1.917   0.162   0.123
              0.213
   6 10.948   0.819   1.899   1.944   1.926   1.946   1.917   0.162   0.122
              0.213
   7 10.945   0.811   1.899   1.943   1.927   1.947   1.917   0.165   0.126
              0.210
   8 10.965   0.840   1.896   1.942   1.924   1.945   1.916   0.159   0.127
              0.217
   9 10.966   0.841   1.895   1.941   1.924   1.945   1.916   0.159   0.127
              0.217
  10 11.043   0.823   1.899   1.864   1.932   1.922   1.931   0.228   0.220
              0.225
  11 11.043   0.823   1.899   1.864   1.932   1.922   1.931   0.228   0.220
              0.225
  12 11.044   0.820   1.892   1.870   1.931   1.919   1.931   0.231   0.227
              0.223
  13 11.047   0.828   1.895   1.873   1.926   1.917   1.930   0.232   0.219
              0.225
  14 11.047   0.828   1.895   1.874   1.926   1.917   1.930   0.232   0.219
              0.225
  15 11.044   0.830   1.897   1.873   1.932   1.909   1.933   0.234   0.210
              0.226
  16 11.043   0.821   1.899   1.862   1.932   1.923   1.931   0.229   0.221
              0.224
  17 11.043   0.821   1.899   1.862   1.932   1.923   1.931   0.229   0.221
              0.224
  18 11.042   0.819   1.891   1.871   1.931   1.921   1.931   0.229   0.225
              0.223
  19 11.047   0.822   1.891   1.871   1.935   1.915   1.931   0.230   0.230
              0.223
  20 11.035   0.823   1.884   1.893   1.932   1.920   1.929   0.225   0.208
              0.221
  21 11.045   0.825   1.889   1.871   1.939   1.922   1.929   0.230   0.218
              0.222
  22 11.045   0.825   1.889   1.871   1.939   1.922   1.929   0.230   0.218
              0.222
  23 11.044   0.825   1.889   1.871   1.936   1.922   1.929   0.230   0.218
              0.223
  24 11.044   0.825   1.889   1.871   1.936   1.922   1.929   0.230   0.218
              0.223
  25 11.048   0.836   1.881   1.888   1.935   1.918   1.930   0.228   0.208
              0.223
  26 11.049   0.826   1.885   1.873   1.936   1.921   1.930   0.231   0.222
              0.226
  27 11.049   0.826   1.885   1.873   1.936   1.921   1.930   0.231   0.222
              0.226
  28 10.948   0.820   1.891   1.945   1.921   1.947   1.916   0.162   0.130
              0.215
  29 10.816   0.716   1.905   1.940   1.912   1.898   1.920   0.136   0.208
              0.181
  30 10.817   0.716   1.905   1.940   1.913   1.899   1.920   0.136   0.208
              0.181
  31 10.946   0.821   1.891   1.945   1.922   1.947   1.916   0.162   0.130
              0.212
  32 10.930   0.820   1.895   1.946   1.911   1.956   1.917   0.167   0.122
              0.196
  33 10.949   0.830   1.890   1.946   1.919   1.947   1.916   0.160   0.128
              0.213
  34 10.949   0.830   1.890   1.946   1.919   1.947   1.916   0.160   0.128
              0.213
  35 10.969   0.845   1.889   1.944   1.920   1.945   1.917   0.158   0.132
              0.217
  36 10.968   0.845   1.889   1.944   1.920   1.945   1.917   0.159   0.132
              0.218

mulliken: Qtot =      403.000

cgvc: WARNING: CG file not found

                     ====================================
                        Begin CG opt. move =      1
                     ====================================

outcoor: Atomic coordinates (Ang):                          
    0.00000000    3.64592370    0.00000000   3       1  Cu.mpn
    2.57805737    3.64592370    0.00000000   3       2  Cu.mpn
    5.15611474    3.64592370    0.00000000   3       3  Cu.mpn
    0.00000000    7.29184739    0.00000000   3       4  Cu.mpn
    2.57805737    7.29184739    0.00000000   3       5  Cu.mpn
    5.15611474    7.29184739    0.00000000   3       6  Cu.mpn
    0.00000000   10.93777108    0.00000000   3       7  Cu.mpn
    2.57805737   10.93777108    0.00000000   3       8  Cu.mpn
    5.15611474   10.93777108    0.00000000   3       9  Cu.mpn
   -1.28902868    1.82296185    1.28902868   3      10  Cu.mpn
    1.28902868    1.82296185    1.28902868   3      11  Cu.mpn
    3.86708605    1.82296185    1.28902868   3      12  Cu.mpn
   -1.28902868    5.46888554    1.28902868   3      13  Cu.mpn
    1.28908160    5.46888554    1.28902868   3      14  Cu.mpn
    3.86708605    5.46888554    1.28902868   3      15  Cu.mpn
   -1.28902868    9.11480924    1.28902868   3      16  Cu.mpn
    1.28908160    9.11480924    1.28902868   3      17  Cu.mpn
    3.86708605    9.11480924    1.28902868   3      18  Cu.mpn
    0.00127062   10.93782741    2.59012157   3      19  Cu.mpn
    0.00241464    7.29611004    2.55722920   3      20  Cu.mpn
    5.15623893   10.93793291    2.58974126   3      21  Cu.mpn
    2.58007022   10.93786455    2.58985315   3      22  Cu.mpn
    2.57839986    7.29501753    2.57894520   3      23  Cu.mpn
    5.15961288    7.29487088    2.57890126   3      24  Cu.mpn
    0.00197210    3.64473656    2.56191508   3      25  Cu.mpn
    2.57814501    3.64689889    2.57983416   3      26  Cu.mpn
    5.15984924    3.64685521    2.58029117   3      27  Cu.mpn
    3.86880049    9.11157639    3.75803611   3      28  Cu.mpn
    1.31019713    5.46132261    3.79819684   3      29  Cu.mpn
   -1.30157776    5.46187125    3.79777009   3      30  Cu.mpn
    3.86905737    1.82789021    3.75726336   3      31  Cu.mpn
    3.87048726    5.47086620    3.75162381   3      32  Cu.mpn
   -1.28619619    1.82436848    3.75787950   3      33  Cu.mpn
    1.29008123    1.82443837    3.75801495   3      34  Cu.mpn
    1.28770800    9.11873089    3.76215848   3      35  Cu.mpn
   -1.28490172    9.11815139    3.76192788   3      36  Cu.mpn
    0.00489367    5.77119106    5.22775546   2      37  O.mpn
    0.01003719    6.86157079    5.27818418   1      38  H.mpn

outcell: Unit cell vectors (Ang):
        7.734172    0.000000    0.000000
        0.000000   10.937771    0.000000
        0.000000    0.000000   13.078057

outcell: Cell vector modules (Ang)   :    7.734172   10.937771   13.078057
outcell: Cell angles (23,13,12) (deg):     90.0000     90.0000     90.0000
outcell: Cell volume (Ang**3)        :   1106.3331
 Folding of H and S is implicitly performed
<dSpData1D:S at geom step 1
  <sparsity:sparsity for geom step 1
    nrows_g=337 nrows=48 sparsity=.1386 nnzs=15743, refcount: 7>
  <dData1D:(new from dSpData1D) n=15743, refcount: 1>
refcount: 1>
new_DM -- step:     2
Re-using DM from previous geometries...
Number of DMs in history: 1
 DM extrapolation coefficients: 
1   1.00000
New DM after history re-use:
<dSpData2D:SpM extrapolated using coords
  <sparsity:sparsity for geom step 1
    nrows_g=337 nrows=48 sparsity=.1386 nnzs=15743, refcount: 8>
  <dData2D:(temp array for extrapolation) n=15743 m=1, refcount: 1>
refcount: 1>
No. of atoms with KB's overlaping orbs in proc 0. Max # of overlaps:      38     237
New grid distribution:   1
           1       1:   24    1:   18    1:   10
           2       1:   24    1:   18   11:   20
           3       1:   24    1:   18   21:   30
           4       1:   24    1:   18   31:   40
           5       1:   24   19:   36    1:   10
           6       1:   24   19:   36   11:   20
           7       1:   24   19:   36   21:   30
           8       1:   24   19:   36   31:   40

InitMesh: MESH =    48 x    72 x    80 =      276480
InitMesh: (bp) =    24 x    36 x    40 =       34560
InitMesh: Mesh cutoff (required, used) =   100.000   103.418 Ry
ExtMesh (bp) on 0 =    72 x    70 x    58 =      292320
New grid distribution:   2
           1       1:   12   19:   36    9:   40
           2      13:   24    1:   18    9:   40
           3      13:   24    1:   18    1:    8
           4      13:   24   19:   36    1:    8
           5       1:   12    1:   18    9:   40
           6      13:   24   19:   36    9:   40
           7       1:   12    1:   18    1:    8
           8       1:   12   19:   36    1:    8
New grid distribution:   3
           1       1:   12   19:   36   18:   40
           2      13:   24    1:   18    1:   17
           3      13:   24    1:   18   18:   40
           4      13:   24   19:   36    1:   17
           5       1:   12    1:   18   18:   40
           6       1:   12    1:   18    1:   17
           7      13:   24   19:   36   18:   40
           8       1:   12   19:   36    1:   17
Setting up quadratic distribution...
ExtMesh (bp) on 0 =    60 x    70 x    80 =      336000
PhiOnMesh: Number of (b)points on node 0 =                 6912
PhiOnMesh: nlist on node 0 =               209291
Dipole moment in unit cell   =      0.0000      0.0000     -0.2238 D
Electric field for dipole correction =   -0.000000   -0.000000    0.007622 eV/Ang/e
Dipole moment in unit cell   =      0.0000      0.0000     -9.7834 D
Electric field for dipole correction =   -0.000000   -0.000000    0.333147 eV/Ang/e

        iscf     Eharris(eV)        E_KS(eV)     FreeEng(eV)     dDmax    Ef(eV) dHmax(eV)
   scf:    1   -54687.312368   -54688.348842   -54688.408508  0.072262 -3.395286  3.226798
Dipole moment in unit cell   =     -0.0000     -0.0000    214.2527 D
Electric field for dipole correction =    0.000000    0.000000   -7.295812 eV/Ang/e
   scf:    2   -52904.284645   -54099.025382   -54099.160569  0.960713 -3.271776 86.504253
Dipole moment in unit cell   =      0.0000      0.0000     -3.6432 D
Electric field for dipole correction =   -0.000000   -0.000000    0.124058 eV/Ang/e
   scf:    3   -54698.606678   -54689.066936   -54689.126437  0.962787 -3.416850  1.339961
Dipole moment in unit cell   =      0.0000      0.0000     -2.5262 D
Electric field for dipole correction =   -0.000000   -0.000000    0.086023 eV/Ang/e
   scf:    4   -54689.209018   -54689.147550   -54689.207092  0.007195 -3.423078  0.918816
Dipole moment in unit cell   =      0.0000      0.0000     -1.4237 D
Electric field for dipole correction =   -0.000000   -0.000000    0.048482 eV/Ang/e
   scf:    5   -54689.218537   -54689.191425   -54689.251043  0.008421 -3.429532  0.446289
Dipole moment in unit cell   =      0.0000      0.0000     -0.9457 D
Electric field for dipole correction =   -0.000000   -0.000000    0.032202 eV/Ang/e
   scf:    6   -54689.205251   -54689.201720   -54689.261421  0.006766 -3.433197  0.145578
Dipole moment in unit cell   =      0.0000      0.0000     -0.9723 D
Electric field for dipole correction =   -0.000000   -0.000000    0.033108 eV/Ang/e
   scf:    7   -54689.202757   -54689.202280   -54689.261982  0.001248 -3.432826  0.123849
Dipole moment in unit cell   =      0.0000      0.0000     -0.9222 D
Electric field for dipole correction =   -0.000000   -0.000000    0.031403 eV/Ang/e
   scf:    8   -54689.203388   -54689.202943   -54689.262644  0.002753 -3.432880  0.034714
Dipole moment in unit cell   =      0.0000      0.0000     -0.9139 D
Electric field for dipole correction =   -0.000000   -0.000000    0.031121 eV/Ang/e
   scf:    9   -54689.203088   -54689.203022   -54689.262717  0.000808 -3.432931  0.013836
Dipole moment in unit cell   =      0.0000      0.0000     -0.9149 D
Electric field for dipole correction =   -0.000000   -0.000000    0.031153 eV/Ang/e
   scf:   10   -54689.203074   -54689.203051   -54689.262741  0.000410 -3.433049  0.005508
Dipole moment in unit cell   =      0.0000      0.0000     -0.9106 D
Electric field for dipole correction =   -0.000000   -0.000000    0.031007 eV/Ang/e
   scf:   11   -54689.203064   -54689.203058   -54689.262746  0.000202 -3.433123  0.002159
Dipole moment in unit cell   =      0.0000      0.0000     -0.9127 D
Electric field for dipole correction =   -0.000000   -0.000000    0.031078 eV/Ang/e
   scf:   12   -54689.203063   -54689.203061   -54689.262748  0.000039 -3.433170  0.001980
Dipole moment in unit cell   =      0.0000      0.0000     -0.9111 D
Electric field for dipole correction =   -0.000000   -0.000000    0.031026 eV/Ang/e
   scf:   13   -54689.203067   -54689.203064   -54689.262749  0.000109 -3.433231  0.000855
Dipole moment in unit cell   =      0.0000      0.0000     -0.9113 D
Electric field for dipole correction =   -0.000000   -0.000000    0.031032 eV/Ang/e
   scf:   14   -54689.203066   -54689.203065   -54689.262750  0.000024 -3.433246  0.000633

SCF Convergence by DM+H criterion
max |DM_out - DM_in|         :     0.0000235424
max |H_out - H_in|      (eV) :     0.0006332097
SCF cycle converged after 14 iterations

Using DM_out to compute the final energy and forces
No. of atoms with KB's overlaping orbs in proc 0. Max # of overlaps:      38     237
Dipole moment in unit cell   =      0.0000      0.0000     -0.9113 D
Electric field for dipole correction =   -0.000000   -0.000000    0.031032 eV/Ang/e

siesta: E_KS(eV) =           -54689.2031

siesta: Atomic forces (eV/Ang):
     1   -0.000212   -0.069017    0.160329
     2    0.004057   -0.077654    0.256894
     3   -0.005084   -0.077578    0.257937
     4   -0.000190    0.068769    0.190413
     5    0.012567    0.077348    0.252015
     6   -0.013663    0.077493    0.251743
     7   -0.000103   -0.032597    0.338886
     8    0.177959    0.024115    0.167044
     9   -0.178382    0.023970    0.165673
    10    0.011922   -0.026721   -0.330289
    11   -0.007628   -0.027333   -0.330036
    12    0.003097   -0.039429   -0.382423
    13   -0.005435   -0.002536   -0.168106
    14    0.009767   -0.002466   -0.169004
    15    0.003209   -0.009662   -0.300736
    16    0.029970    0.043295   -0.329280
    17   -0.026805    0.043884   -0.329221
    18    0.003228    0.046140   -0.332750
    19   -0.018825    0.002516    0.534571
    20   -0.017088    0.057922    0.401427
    21   -0.009879   -0.009011    0.529240
    22   -0.021085   -0.008223    0.525982
    23    0.028844    0.046070    0.574996
    24   -0.071633    0.044850    0.573148
    25   -0.012657   -0.077572    0.445054
    26    0.051172   -0.027225    0.562757
    27   -0.092036   -0.022515    0.557484
    28   -0.028060   -0.039648    0.309568
    29   -0.060909   -0.072450   -0.060765
    30   -0.009474   -0.063391   -0.073432
    31   -0.033499    0.054680    0.336220
    32   -0.053979    0.037877    0.619782
    33   -0.003699    0.004181    0.365458
    34   -0.048908    0.010241    0.356047
    35   -0.027645   -0.023040    0.306532
    36   -0.017940   -0.022196    0.310208
    37   -0.051748    1.713294    0.297299
    38   -0.015127   -1.615470   -0.161668
----------------------------------------
   Tot   -0.495903    0.030911    6.678997
----------------------------------------
   Max    1.713294
   Res    0.306460    sqrt( Sum f_i^2 / 3N )
----------------------------------------
   Max    1.713294    constrained

Stress-tensor-Voigt (kbar):      -15.53        0.94      -21.19        0.03        0.16        0.07
(Free)E + p*V (eV/cell)   -54681.0280
Target enthalpy (eV/cell)   -54689.2627

mulliken: Atomic and Orbital Populations:

Species: H.mpn               
Atom  Qatom  Qorb
               1s      1Ppy    1Ppz    1Ppx    
  38  0.878   0.703   0.056   0.067   0.052

Species: O.mpn               
Atom  Qatom  Qorb
               2s      2py     2pz     2px     2Pdxy   2Pdyz   2Pdz2   2Pdxz   
               2Pdx2-y2
  37  6.442   1.792   1.359   1.636   1.622   0.002   0.004   0.010   0.004
              0.014

Species: Cu.mpn              
Atom  Qatom  Qorb
               4s      3dxy    3dyz    3dz2    3dxz    3dx2-y2 4Ppy    4Ppz    
               4Ppx    
   1 10.955   0.828   1.896   1.944   1.928   1.947   1.917   0.158   0.121
              0.216
   2 10.947   0.819   1.899   1.944   1.926   1.947   1.916   0.163   0.120
              0.214
   3 10.947   0.819   1.899   1.944   1.926   1.947   1.916   0.163   0.120
              0.214
   4 10.954   0.827   1.895   1.944   1.928   1.946   1.917   0.160   0.125
              0.212
   5 10.948   0.818   1.899   1.944   1.927   1.946   1.917   0.162   0.122
              0.213
   6 10.948   0.818   1.899   1.944   1.927   1.946   1.917   0.162   0.122
              0.213
   7 10.945   0.811   1.899   1.943   1.928   1.947   1.917   0.165   0.125
              0.210
   8 10.966   0.841   1.895   1.941   1.924   1.945   1.916   0.160   0.126
              0.217
   9 10.966   0.842   1.895   1.941   1.924   1.945   1.916   0.160   0.126
              0.217
  10 11.043   0.823   1.900   1.863   1.932   1.922   1.931   0.227   0.219
              0.225
  11 11.043   0.823   1.900   1.863   1.932   1.922   1.931   0.227   0.219
              0.225
  12 11.044   0.820   1.893   1.870   1.931   1.919   1.931   0.230   0.226
              0.223
  13 11.047   0.828   1.896   1.873   1.926   1.917   1.931   0.232   0.218
              0.226
  14 11.047   0.828   1.896   1.873   1.926   1.917   1.931   0.233   0.218
              0.226
  15 11.043   0.830   1.897   1.873   1.933   1.909   1.933   0.233   0.210
              0.226
  16 11.043   0.822   1.900   1.862   1.933   1.923   1.931   0.229   0.221
              0.224
  17 11.043   0.822   1.899   1.862   1.933   1.923   1.931   0.229   0.221
              0.224
  18 11.042   0.820   1.892   1.871   1.932   1.920   1.931   0.228   0.225
              0.223
  19 11.047   0.822   1.891   1.871   1.935   1.915   1.931   0.229   0.228
              0.223
  20 11.037   0.824   1.885   1.893   1.931   1.920   1.929   0.225   0.209
              0.222
  21 11.044   0.825   1.890   1.870   1.940   1.922   1.930   0.229   0.217
              0.223
  22 11.044   0.825   1.890   1.870   1.940   1.922   1.930   0.229   0.217
              0.223
  23 11.044   0.825   1.890   1.871   1.936   1.922   1.929   0.230   0.217
              0.223
  24 11.044   0.825   1.890   1.871   1.936   1.922   1.929   0.230   0.217
              0.223
  25 11.048   0.836   1.882   1.888   1.936   1.918   1.931   0.228   0.207
              0.224
  26 11.048   0.826   1.886   1.873   1.936   1.921   1.930   0.231   0.220
              0.226
  27 11.048   0.826   1.886   1.873   1.936   1.921   1.930   0.231   0.220
              0.226
  28 10.949   0.822   1.891   1.945   1.921   1.947   1.916   0.163   0.130
              0.214
  29 10.820   0.719   1.907   1.941   1.912   1.893   1.919   0.137   0.211
              0.181
  30 10.820   0.719   1.907   1.941   1.912   1.893   1.919   0.138   0.211
              0.181
  31 10.947   0.823   1.891   1.945   1.922   1.947   1.916   0.162   0.129
              0.212
  32 10.926   0.819   1.895   1.946   1.912   1.957   1.917   0.166   0.121
              0.194
  33 10.949   0.829   1.890   1.946   1.920   1.947   1.916   0.160   0.127
              0.214
  34 10.949   0.829   1.890   1.946   1.920   1.947   1.916   0.159   0.127
              0.214
  35 10.971   0.845   1.889   1.943   1.921   1.945   1.917   0.158   0.134
              0.218
  36 10.970   0.845   1.889   1.943   1.921   1.945   1.917   0.158   0.134
              0.218

mulliken: Qtot =      403.000

                     ====================================
                        Begin CG opt. move =      2
                     ====================================

outcoor: Atomic coordinates (Ang):                          
    0.00000000    3.64592370    0.00000000   3       1  Cu.mpn
    2.57805737    3.64592370    0.00000000   3       2  Cu.mpn
    5.15611474    3.64592370    0.00000000   3       3  Cu.mpn
    0.00000000    7.29184739    0.00000000   3       4  Cu.mpn
    2.57805737    7.29184739    0.00000000   3       5  Cu.mpn
    5.15611474    7.29184739    0.00000000   3       6  Cu.mpn
    0.00000000   10.93777108    0.00000000   3       7  Cu.mpn
    2.57805737   10.93777108    0.00000000   3       8  Cu.mpn
    5.15611474   10.93777108    0.00000000   3       9  Cu.mpn
   -1.28902868    1.82296185    1.28902868   3      10  Cu.mpn
    1.28902868    1.82296185    1.28902868   3      11  Cu.mpn
    3.86708605    1.82296185    1.28902868   3      12  Cu.mpn
   -1.28902868    5.46888554    1.28902868   3      13  Cu.mpn
    1.28908160    5.46888554    1.28902868   3      14  Cu.mpn
    3.86708605    5.46888554    1.28902868   3      15  Cu.mpn
   -1.28902868    9.11480924    1.28902868   3      16  Cu.mpn
    1.28908160    9.11480924    1.28902868   3      17  Cu.mpn
    3.86708605    9.11480924    1.28902868   3      18  Cu.mpn
    0.00130643   10.93782880    2.58882868   3      19  Cu.mpn
    0.00244488    7.29608205    2.55663075   3      20  Cu.mpn
    5.15624966   10.93797903    2.58846436   3      21  Cu.mpn
    2.58010449   10.93790975    2.58857519   3      22  Cu.mpn
    2.57833350    7.29489517    2.57774062   3      23  Cu.mpn
    5.15973425    7.29475159    2.57770720   3      24  Cu.mpn
    0.00199324    3.64479153    2.56118475   3      25  Cu.mpn
    2.57801561    3.64696455    2.57863672   3      26  Cu.mpn
    5.16003987    3.64691591    2.57910205   3      27  Cu.mpn
    3.86888288    9.11167904    3.75660102   3      28  Cu.mpn
    1.31090515    5.46130217    3.79783142   3      29  Cu.mpn
   -1.30217573    5.46184635    3.79747901   3      30  Cu.mpn
    3.86915006    1.82771989    3.75575762   3      31  Cu.mpn
    3.87058267    5.47077614    3.74948002   3      32  Cu.mpn
   -1.28622122    1.82435433    3.75618666   3      33  Cu.mpn
    1.29026517    1.82442612    3.75633052   3      34  Cu.mpn
    1.28775334    9.11873096    3.76064008   3      35  Cu.mpn
   -1.28482570    9.11815062    3.76041020   3      36  Cu.mpn
    0.00517155    5.77494007    5.22852611   2      37  O.mpn
    0.01003948    6.85812888    5.27823791   1      38  H.mpn

outcell: Unit cell vectors (Ang):
        7.734172    0.000000    0.000000
        0.000000   10.937771    0.000000
        0.000000    0.000000   13.078057

outcell: Cell vector modules (Ang)   :    7.734172   10.937771   13.078057
outcell: Cell angles (23,13,12) (deg):     90.0000     90.0000     90.0000
outcell: Cell volume (Ang**3)        :   1106.3331
 Folding of H and S is implicitly performed
<dSpData1D:S at geom step 2
  <sparsity:sparsity for geom step 2
    nrows_g=337 nrows=48 sparsity=.1386 nnzs=15743, refcount: 7>
  <dData1D:(new from dSpData1D) n=15743, refcount: 1>
refcount: 1>
new_DM -- step:     3
Re-using DM from previous geometries...
Number of DMs in history: 1
 DM extrapolation coefficients: 
1   1.00000
New DM after history re-use:
<dSpData2D:SpM extrapolated using coords
  <sparsity:sparsity for geom step 2
    nrows_g=337 nrows=48 sparsity=.1386 nnzs=15743, refcount: 8>
  <dData2D:(temp array for extrapolation) n=15743 m=1, refcount: 1>
refcount: 1>
No. of atoms with KB's overlaping orbs in proc 0. Max # of overlaps:      38     237
New grid distribution:   1
           1       1:   24    1:   18    1:   10
           2       1:   24    1:   18   11:   20
           3       1:   24    1:   18   21:   30
           4       1:   24    1:   18   31:   40
           5       1:   24   19:   36    1:   10
           6       1:   24   19:   36   11:   20
           7       1:   24   19:   36   21:   30
           8       1:   24   19:   36   31:   40

InitMesh: MESH =    48 x    72 x    80 =      276480
InitMesh: (bp) =    24 x    36 x    40 =       34560
InitMesh: Mesh cutoff (required, used) =   100.000   103.418 Ry
ExtMesh (bp) on 0 =    72 x    70 x    58 =      292320
New grid distribution:   2
           1       1:   12   19:   36    9:   40
           2      13:   24    1:   18    9:   40
           3      13:   24    1:   18    1:    8
           4      13:   24   19:   36    1:    8
           5       1:   12    1:   18    9:   40
           6      13:   24   19:   36    9:   40
           7       1:   12    1:   18    1:    8
           8       1:   12   19:   36    1:    8
New grid distribution:   3
           1       1:   12   19:   36   18:   40
           2      13:   24    1:   18    1:   17
           3      13:   24    1:   18   18:   40
           4      13:   24   19:   36    1:   17
           5       1:   12    1:   18   18:   40
           6       1:   12    1:   18    1:   17
           7      13:   24   19:   36   18:   40
           8       1:   12   19:   36    1:   17
Setting up quadratic distribution...
ExtMesh (bp) on 0 =    60 x    70 x    80 =      336000
PhiOnMesh: Number of (b)points on node 0 =                 6912
PhiOnMesh: nlist on node 0 =               209267
Dipole moment in unit cell   =      0.0000      0.0000     -0.9642 D
Electric field for dipole correction =   -0.000000   -0.000000    0.032835 eV/Ang/e
Dipole moment in unit cell   =      0.0000      0.0000     -0.2817 D
Electric field for dipole correction =   -0.000000   -0.000000    0.009593 eV/Ang/e

        iscf     Eharris(eV)        E_KS(eV)     FreeEng(eV)     dDmax    Ef(eV) dHmax(eV)
   scf:    1   -54689.140653   -54689.200097   -54689.259796  0.004955 -3.435962  0.237451
Dipole moment in unit cell   =      0.0000      0.0000    -11.3995 D
Electric field for dipole correction =   -0.000000   -0.000000    0.388179 eV/Ang/e
   scf:    2   -54685.871644   -54688.114276   -54688.173984  0.030356 -3.417763  3.026613
Dipole moment in unit cell   =      0.0000      0.0000     -0.8821 D
Electric field for dipole correction =   -0.000000   -0.000000    0.030036 eV/Ang/e
   scf:    3   -54689.262904   -54689.204362   -54689.264060  0.028264 -3.434417  0.048924
Dipole moment in unit cell   =      0.0000      0.0000     -0.9032 D
Electric field for dipole correction =   -0.000000   -0.000000    0.030758 eV/Ang/e
   scf:    4   -54689.204459   -54689.204417   -54689.264114  0.000251 -3.434048  0.034477
Dipole moment in unit cell   =      0.0000      0.0000     -0.9099 D
Electric field for dipole correction =   -0.000000   -0.000000    0.030983 eV/Ang/e
   scf:    5   -54689.204485   -54689.204458   -54689.264156  0.000476 -3.433501  0.015076
Dipole moment in unit cell   =      0.0000      0.0000     -0.9152 D
Electric field for dipole correction =   -0.000000   -0.000000    0.031166 eV/Ang/e
   scf:    6   -54689.204471   -54689.204467   -54689.264166  0.000384 -3.433240  0.003064
Dipole moment in unit cell   =      0.0000      0.0000     -0.9149 D
Electric field for dipole correction =   -0.000000   -0.000000    0.031153 eV/Ang/e
   scf:    7   -54689.204467   -54689.204467   -54689.264167  0.000071 -3.433220  0.001810
Dipole moment in unit cell   =      0.0000      0.0000     -0.9153 D
Electric field for dipole correction =   -0.000000   -0.000000    0.031169 eV/Ang/e
   scf:    8   -54689.204467   -54689.204467   -54689.264168  0.000079 -3.433199  0.000443

SCF Convergence by DM+H criterion
max |DM_out - DM_in|         :     0.0000792320
max |H_out - H_in|      (eV) :     0.0004426421
SCF cycle converged after 8 iterations

Using DM_out to compute the final energy and forces
No. of atoms with KB's overlaping orbs in proc 0. Max # of overlaps:      38     237
Dipole moment in unit cell   =      0.0000      0.0000     -0.9153 D
Electric field for dipole correction =   -0.000000   -0.000000    0.031169 eV/Ang/e

siesta: E_KS(eV) =           -54689.2045

siesta: Atomic forces (eV/Ang):
     1   -0.000222   -0.068880    0.157868
     2    0.003640   -0.077668    0.253424
     3   -0.004694   -0.077607    0.254519
     4   -0.000192    0.068649    0.188347
     5    0.012144    0.077312    0.248814
     6   -0.013265    0.077463    0.248605
     7   -0.000136   -0.032689    0.335660
     8    0.177942    0.024238    0.163580
     9   -0.178366    0.024121    0.162142
    10    0.012020   -0.026203   -0.337976
    11   -0.007685   -0.026783   -0.337660
    12    0.003137   -0.038778   -0.389509
    13   -0.004474   -0.002509   -0.170595
    14    0.008895   -0.002453   -0.171653
    15    0.003242   -0.009919   -0.309892
    16    0.030073    0.042616   -0.335567
    17   -0.026844    0.043204   -0.335527
    18    0.003267    0.045535   -0.339163
    19   -0.018248    0.002984    0.549718
    20   -0.017429    0.054910    0.395530
    21   -0.009744   -0.010135    0.542867
    22   -0.019844   -0.008568    0.541994
    23    0.029666    0.046863    0.581520
    24   -0.071377    0.045615    0.578501
    25   -0.012443   -0.074816    0.443089
    26    0.052333   -0.026391    0.570502
    27   -0.093384   -0.023630    0.565773
    28   -0.030154   -0.036848    0.346686
    29   -0.081973   -0.068115   -0.042372
    30    0.013291   -0.059469   -0.059172
    31   -0.035710    0.056465    0.373708
    32   -0.055470    0.038231    0.670319
    33   -0.007105    0.002509    0.412003
    34   -0.057957    0.004452    0.404815
    35   -0.026861   -0.019649    0.342673
    36   -0.021061   -0.020242    0.345748
    37   -0.052699    1.546496    0.242357
    38   -0.014284   -1.444051   -0.154777
----------------------------------------
   Tot   -0.511973    0.046258    6.936899
----------------------------------------
   Max    1.546496
   Res    0.295257    sqrt( Sum f_i^2 / 3N )
----------------------------------------
   Max    1.546496    constrained

Stress-tensor-Voigt (kbar):      -15.52        0.56      -21.34        0.03        0.16        0.06
(Free)E + p*V (eV/cell)   -54680.9088
Target enthalpy (eV/cell)   -54689.2642

mulliken: Atomic and Orbital Populations:

Species: H.mpn               
Atom  Qatom  Qorb
               1s      1Ppy    1Ppz    1Ppx    
  38  0.877   0.700   0.056   0.068   0.052

Species: O.mpn               
Atom  Qatom  Qorb
               2s      2py     2pz     2px     2Pdxy   2Pdyz   2Pdz2   2Pdxz   
               2Pdx2-y2
  37  6.444   1.790   1.362   1.636   1.622   0.002   0.004   0.010   0.004
              0.014

Species: Cu.mpn              
Atom  Qatom  Qorb
               4s      3dxy    3dyz    3dz2    3dxz    3dx2-y2 4Ppy    4Ppz    
               4Ppx    
   1 10.955   0.828   1.896   1.944   1.928   1.947   1.917   0.158   0.121
              0.216
   2 10.948   0.819   1.899   1.944   1.926   1.947   1.916   0.163   0.120
              0.214
   3 10.947   0.819   1.899   1.944   1.926   1.947   1.916   0.163   0.120
              0.214
   4 10.954   0.827   1.895   1.944   1.928   1.946   1.917   0.160   0.125
              0.212
   5 10.948   0.818   1.899   1.944   1.927   1.946   1.917   0.162   0.122
              0.213
   6 10.948   0.818   1.899   1.944   1.927   1.946   1.917   0.162   0.122
              0.213
   7 10.945   0.811   1.899   1.943   1.928   1.947   1.917   0.165   0.125
              0.210
   8 10.966   0.841   1.895   1.941   1.924   1.945   1.916   0.160   0.126
              0.217
   9 10.966   0.841   1.895   1.941   1.924   1.945   1.916   0.160   0.126
              0.217
  10 11.043   0.823   1.900   1.863   1.932   1.922   1.931   0.227   0.219
              0.225
  11 11.043   0.823   1.900   1.863   1.932   1.922   1.931   0.227   0.219
              0.225
  12 11.044   0.820   1.893   1.870   1.931   1.919   1.931   0.230   0.226
              0.223
  13 11.047   0.828   1.896   1.873   1.926   1.917   1.931   0.232   0.218
              0.226
  14 11.047   0.828   1.896   1.873   1.926   1.917   1.931   0.232   0.218
              0.226
  15 11.043   0.830   1.897   1.873   1.933   1.909   1.933   0.233   0.210
              0.226
  16 11.043   0.822   1.899   1.862   1.933   1.923   1.931   0.229   0.221
              0.224
  17 11.043   0.822   1.899   1.862   1.933   1.923   1.931   0.229   0.221
              0.224
  18 11.042   0.820   1.892   1.871   1.932   1.920   1.931   0.228   0.225
              0.223
  19 11.047   0.822   1.891   1.871   1.935   1.915   1.931   0.229   0.229
              0.223
  20 11.037   0.824   1.885   1.893   1.931   1.920   1.929   0.225   0.209
              0.222
  21 11.044   0.825   1.889   1.870   1.940   1.922   1.930   0.229   0.217
              0.223
  22 11.044   0.825   1.890   1.870   1.940   1.922   1.930   0.229   0.217
              0.223
  23 11.044   0.825   1.890   1.871   1.936   1.922   1.929   0.230   0.217
              0.223
  24 11.044   0.825   1.890   1.871   1.936   1.922   1.929   0.230   0.217
              0.223
  25 11.048   0.836   1.881   1.888   1.936   1.918   1.931   0.228   0.207
              0.224
  26 11.048   0.826   1.886   1.873   1.936   1.921   1.930   0.231   0.220
              0.226
  27 11.048   0.826   1.885   1.873   1.936   1.921   1.930   0.231   0.220
              0.226
  28 10.949   0.822   1.891   1.945   1.921   1.947   1.916   0.163   0.130
              0.214
  29 10.819   0.719   1.906   1.941   1.912   1.894   1.919   0.137   0.211
              0.181
  30 10.820   0.719   1.906   1.941   1.912   1.894   1.919   0.137   0.211
              0.181
  31 10.947   0.823   1.891   1.945   1.922   1.947   1.916   0.162   0.129
              0.212
  32 10.927   0.819   1.895   1.946   1.912   1.957   1.917   0.166   0.121
              0.194
  33 10.949   0.829   1.890   1.946   1.920   1.947   1.916   0.160   0.127
              0.214
  34 10.949   0.829   1.890   1.946   1.920   1.947   1.916   0.160   0.127
              0.214
  35 10.970   0.845   1.889   1.943   1.921   1.945   1.917   0.159   0.134
              0.218
  36 10.970   0.845   1.889   1.943   1.921   1.945   1.917   0.158   0.134
              0.218

mulliken: Qtot =      403.000

cgvc: Finished line minimization    1.  Mean atomic displacement =    0.0301

                     ====================================
                        Begin CG opt. move =      3
                     ====================================

outcoor: Atomic coordinates (Ang):                          
    0.00000000    3.64592370    0.00000000   3       1  Cu.mpn
    2.57805737    3.64592370    0.00000000   3       2  Cu.mpn
    5.15611474    3.64592370    0.00000000   3       3  Cu.mpn
    0.00000000    7.29184739    0.00000000   3       4  Cu.mpn
    2.57805737    7.29184739    0.00000000   3       5  Cu.mpn
    5.15611474    7.29184739    0.00000000   3       6  Cu.mpn
    0.00000000   10.93777108    0.00000000   3       7  Cu.mpn
    2.57805737   10.93777108    0.00000000   3       8  Cu.mpn
    5.15611474   10.93777108    0.00000000   3       9  Cu.mpn
   -1.28902868    1.82296185    1.28902868   3      10  Cu.mpn
    1.28902868    1.82296185    1.28902868   3      11  Cu.mpn
    3.86708605    1.82296185    1.28902868   3      12  Cu.mpn
   -1.28902868    5.46888554    1.28902868   3      13  Cu.mpn
    1.28908160    5.46888554    1.28902868   3      14  Cu.mpn
    3.86708605    5.46888554    1.28902868   3      15  Cu.mpn
   -1.28902868    9.11480924    1.28902868   3      16  Cu.mpn
    1.28908160    9.11480924    1.28902868   3      17  Cu.mpn
    3.86708605    9.11480924    1.28902868   3      18  Cu.mpn
    0.00053073   10.93789875    2.61387681   3      19  Cu.mpn
    0.00173514    7.29779019    2.57204928   3      20  Cu.mpn
    5.15590138   10.93734234    2.61320133   3      21  Cu.mpn
    2.57929761   10.93732279    2.61329685   3      22  Cu.mpn
    2.57965845    7.29712579    2.60295780   3      23  Cu.mpn
    5.15684685    7.29692425    2.60276000   3      24  Cu.mpn
    0.00148998    3.64233205    2.57892748   3      25  Cu.mpn
    2.58044977    3.64573387    2.60349925   3      26  Cu.mpn
    5.15601233    3.64579893    2.60377105   3      27  Cu.mpn
    3.86741886    9.10987455    3.77726143   3      28  Cu.mpn
    1.30312651    5.45961611    3.79955060   3      29  Cu.mpn
   -1.29712256    5.46042968    3.79815942   3      30  Cu.mpn
    3.86745463    1.83058721    3.77770500   3      31  Cu.mpn
    3.86833020    5.47251931    3.78447526   3      32  Cu.mpn
   -1.28621739    1.82453337    3.78064046   3      33  Cu.mpn
    1.28725058    1.82464289    3.78052350   3      34  Cu.mpn
    1.28666937    9.11819779    3.78184552   3      35  Cu.mpn
   -1.28599323    9.11760797    3.78169337   3      36  Cu.mpn
    0.00156225    5.78743993    5.22904784   2      37  O.mpn
    0.00963430    6.84599602    5.27362061   1      38  H.mpn

outcell: Unit cell vectors (Ang):
        7.734172    0.000000    0.000000
        0.000000   10.937771    0.000000
        0.000000    0.000000   13.078057

outcell: Cell vector modules (Ang)   :    7.734172   10.937771   13.078057
outcell: Cell angles (23,13,12) (deg):     90.0000     90.0000     90.0000
outcell: Cell volume (Ang**3)        :   1106.3331
 Folding of H and S is implicitly performed
<dSpData1D:S at geom step 3
  <sparsity:sparsity for geom step 3
    nrows_g=337 nrows=48 sparsity=.1386 nnzs=15743, refcount: 7>
  <dData1D:(new from dSpData1D) n=15743, refcount: 1>
refcount: 1>
new_DM -- step:     4
Re-using DM from previous geometries...
Number of DMs in history: 1
 DM extrapolation coefficients: 
1   1.00000
New DM after history re-use:
<dSpData2D:SpM extrapolated using coords
  <sparsity:sparsity for geom step 3
    nrows_g=337 nrows=48 sparsity=.1386 nnzs=15743, refcount: 8>
  <dData2D:(temp array for extrapolation) n=15743 m=1, refcount: 1>
refcount: 1>
No. of atoms with KB's overlaping orbs in proc 0. Max # of overlaps:      38     237
New grid distribution:   1
           1       1:   24    1:   18    1:   10
           2       1:   24    1:   18   11:   20
           3       1:   24    1:   18   21:   30
           4       1:   24    1:   18   31:   40
           5       1:   24   19:   36    1:   10
           6       1:   24   19:   36   11:   20
           7       1:   24   19:   36   21:   30
           8       1:   24   19:   36   31:   40

InitMesh: MESH =    48 x    72 x    80 =      276480
InitMesh: (bp) =    24 x    36 x    40 =       34560
InitMesh: Mesh cutoff (required, used) =   100.000   103.418 Ry
ExtMesh (bp) on 0 =    72 x    70 x    58 =      292320
New grid distribution:   2
           1       1:   12   19:   36    9:   40
           2      13:   24    1:   18    9:   40
           3      13:   24    1:   18    1:    8
           4      13:   24   19:   36    1:    8
           5       1:   12    1:   18    9:   40
           6      13:   24   19:   36    9:   40
           7       1:   12    1:   18    1:    8
           8       1:   12   19:   36    1:    8
New grid distribution:   3
           1       1:   12   19:   36   18:   40
           2      13:   24    1:   18    1:   17
           3      13:   24    1:   18   18:   40
           4      13:   24   19:   36    1:   17
           5       1:   12    1:   18   18:   40
           6       1:   12    1:   18    1:   17
           7      13:   24   19:   36   18:   40
           8       1:   12   19:   36    1:   17
Setting up quadratic distribution...
ExtMesh (bp) on 0 =    60 x    70 x    80 =      336000
PhiOnMesh: Number of (b)points on node 0 =                 6912
PhiOnMesh: nlist on node 0 =               209745
Dipole moment in unit cell   =     -0.0000     -0.0000     -1.0876 D
Electric field for dipole correction =    0.000000    0.000000    0.037037 eV/Ang/e
Dipole moment in unit cell   =      0.0000      0.0000      1.5852 D
Electric field for dipole correction =   -0.000000   -0.000000   -0.053979 eV/Ang/e

        iscf     Eharris(eV)        E_KS(eV)     FreeEng(eV)     dDmax    Ef(eV) dHmax(eV)
   scf:    1   -54689.259770   -54689.264760   -54689.324390  0.015840 -3.463673  0.931917
Dipole moment in unit cell   =     -0.0000     -0.0000    -42.9729 D
Electric field for dipole correction =    0.000000    0.000000    1.463328 eV/Ang/e
   scf:    2   -54635.771933   -54671.826946   -54671.887652  0.114549 -3.333156 12.278855
Dipole moment in unit cell   =     -0.0000     -0.0000     -0.8057 D
Electric field for dipole correction =    0.000000    0.000000    0.027435 eV/Ang/e
   scf:    3   -54690.275297   -54689.339562   -54689.399284  0.104413 -3.450951  0.147968
Dipole moment in unit cell   =     -0.0000     -0.0000     -0.8858 D
Electric field for dipole correction =    0.000000    0.000000    0.030164 eV/Ang/e
   scf:    4   -54689.341593   -54689.340831   -54689.400563  0.001418 -3.447124  0.089615
Dipole moment in unit cell   =     -0.0000     -0.0000     -0.8918 D
Electric field for dipole correction =    0.000000    0.000000    0.030368 eV/Ang/e
[...]
<dSpData1D:S at geom step 66
  <sparsity:sparsity for geom step 66
    nrows_g=337 nrows=48 sparsity=.1385 nnzs=15728, refcount: 7>
  <dData1D:(new from dSpData1D) n=15728, refcount: 1>
refcount: 1>
new_DM -- step:    67
Re-using DM from previous geometries...
Number of DMs in history: 1
 DM extrapolation coefficients: 
1   1.00000
New DM after history re-use:
<dSpData2D:SpM extrapolated using coords
  <sparsity:sparsity for geom step 66
    nrows_g=337 nrows=48 sparsity=.1385 nnzs=15728, refcount: 8>
  <dData2D:(temp array for extrapolation) n=15728 m=1, refcount: 1>
refcount: 1>
No. of atoms with KB's overlaping orbs in proc 0. Max # of overlaps:      38     237
New grid distribution:   1
           1       1:   24    1:   18    1:   10
           2       1:   24    1:   18   11:   20
           3       1:   24    1:   18   21:   30
           4       1:   24    1:   18   31:   40
           5       1:   24   19:   36    1:   10
           6       1:   24   19:   36   11:   20
           7       1:   24   19:   36   21:   30
           8       1:   24   19:   36   31:   40

InitMesh: MESH =    48 x    72 x    80 =      276480
InitMesh: (bp) =    24 x    36 x    40 =       34560
InitMesh: Mesh cutoff (required, used) =   100.000   103.418 Ry
ExtMesh (bp) on 0 =    72 x    70 x    58 =      292320
New grid distribution:   2
           1       1:   12   19:   36    9:   40
           2      13:   24    1:   18    9:   40
           3      13:   24    1:   18    1:    8
           4      13:   24   19:   36    1:    8
           5       1:   12    1:   18    9:   40
           6      13:   24   19:   36    9:   40
           7       1:   12    1:   18    1:    8
           8       1:   12   19:   36    1:    8
New grid distribution:   3
           1       1:   12   19:   36   18:   40
           2      13:   24    1:   18    1:   17
           3      13:   24    1:   18   18:   40
           4      13:   24   19:   36    1:   17
           5       1:   12    1:   18   18:   40
           6       1:   12    1:   18    1:   17
           7      13:   24   19:   36   18:   40
           8       1:   12   19:   36    1:   17
Setting up quadratic distribution...
ExtMesh (bp) on 0 =    60 x    70 x    80 =      336000
PhiOnMesh: Number of (b)points on node 0 =                 6912
PhiOnMesh: nlist on node 0 =               210516
Dipole moment in unit cell   =      0.0000     -0.0000     -1.0101 D
Electric field for dipole correction =   -0.000000    0.000000    0.034396 eV/Ang/e
Dipole moment in unit cell   =      0.0000     -0.0000     -0.9257 D
Electric field for dipole correction =   -0.000000    0.000000    0.031521 eV/Ang/e

        iscf     Eharris(eV)        E_KS(eV)     FreeEng(eV)     dDmax    Ef(eV) dHmax(eV)
   scf:    1   -54689.454005   -54689.457364   -54689.517050  0.000631 -3.447005  0.035177
Dipole moment in unit cell   =      0.0000     -0.0000     -2.3894 D
Electric field for dipole correction =   -0.000000    0.000000    0.081365 eV/Ang/e
   scf:    2   -54689.397023   -54689.437675   -54689.497374  0.004916 -3.445216  0.454123
Dipole moment in unit cell   =      0.0000     -0.0000     -1.0002 D
Electric field for dipole correction =   -0.000000    0.000000    0.034059 eV/Ang/e
   scf:    3   -54689.458464   -54689.457443   -54689.517129  0.004573 -3.446847  0.007727
Dipole moment in unit cell   =      0.0000     -0.0000     -1.0044 D
Electric field for dipole correction =   -0.000000    0.000000    0.034201 eV/Ang/e
   scf:    4   -54689.457445   -54689.457444   -54689.517130  0.000041 -3.446814  0.005074
Dipole moment in unit cell   =      0.0000     -0.0000     -1.0048 D
Electric field for dipole correction =   -0.000000    0.000000    0.034214 eV/Ang/e
   scf:    5   -54689.457445   -54689.457445   -54689.517131  0.000048 -3.446779  0.002496
Dipole moment in unit cell   =      0.0000     -0.0000     -1.0053 D
Electric field for dipole correction =   -0.000000    0.000000    0.034232 eV/Ang/e
   scf:    6   -54689.457445   -54689.457445   -54689.517131  0.000052 -3.446765  0.000740

SCF Convergence by DM+H criterion
max |DM_out - DM_in|         :     0.0000521814
max |H_out - H_in|      (eV) :     0.0007399319
SCF cycle converged after 6 iterations

Using DM_out to compute the final energy and forces
No. of atoms with KB's overlaping orbs in proc 0. Max # of overlaps:      38     237
Dipole moment in unit cell   =      0.0000     -0.0000     -1.0053 D
Electric field for dipole correction =   -0.000000    0.000000    0.034232 eV/Ang/e

siesta: E_KS(eV) =           -54689.4574

siesta: Atomic forces (eV/Ang):
     1    0.000096   -0.062812    0.264257
     2   -0.000225   -0.075265    0.331393
     3    0.000173   -0.075296    0.331253
     4    0.000012    0.065320    0.327441
     5    0.016103    0.072340    0.337236
     6   -0.016041    0.072300    0.337271
     7    0.000040   -0.052393    0.389009
     8    0.175891    0.039551    0.246675
     9   -0.175873    0.039272    0.246931
    10    0.009554    0.016747   -0.222047
    11   -0.009223    0.016507   -0.222102
    12   -0.000466   -0.019243   -0.290051
    13    0.010558   -0.017276    0.118285
    14   -0.012028   -0.016750    0.117805
    15   -0.000188   -0.014746   -0.173314
    16    0.055303   -0.010824   -0.202739
    17   -0.057421   -0.010653   -0.202186
    18    0.000297   -0.002163   -0.204584
    19    0.001347    0.002351    0.003484
    20    0.000113    0.007949   -0.019909
    21   -0.005949    0.005406   -0.002984
    22    0.004870    0.005968   -0.002006
    23    0.000403    0.001015    0.000341
    24    0.000425    0.000788    0.004785
    25   -0.001275   -0.003762   -0.001000
    26    0.003925    0.004541   -0.004598
    27   -0.000335    0.005091   -0.002906
    28   -0.001447   -0.005942   -0.004793
    29    0.009269   -0.008076   -0.007445
    30   -0.012836   -0.003330   -0.019672
    31   -0.000974    0.009425   -0.009836
    32    0.002018    0.008017   -0.006390
    33   -0.000864   -0.000443    0.002468
    34    0.000838   -0.000898    0.002480
    35   -0.010263    0.006418    0.000638
    36    0.008697    0.005636    0.003138
    37    0.009634    0.001589    0.005632
    38    0.000526   -0.018922   -0.000120
----------------------------------------
   Tot    0.004683   -0.012565    1.471840
----------------------------------------
   Max    0.389009
   Res    0.109679    sqrt( Sum f_i^2 / 3N )
----------------------------------------
   Max    0.019909    constrained

Stress-tensor-Voigt (kbar):      -14.43        2.18      -16.27       -0.02       -0.08       -0.00
(Free)E + p*V (eV/cell)   -54682.9529
Target enthalpy (eV/cell)   -54689.5171

mulliken: Atomic and Orbital Populations:

Species: H.mpn               
Atom  Qatom  Qorb
               1s      1Ppy    1Ppz    1Ppx    
  38  0.899   0.695   0.062   0.084   0.058

Species: O.mpn               
Atom  Qatom  Qorb
               2s      2py     2pz     2px     2Pdxy   2Pdyz   2Pdz2   2Pdxz   
               2Pdx2-y2
  37  6.455   1.779   1.372   1.646   1.621   0.002   0.006   0.010   0.005
              0.015

Species: Cu.mpn              
Atom  Qatom  Qorb
               4s      3dxy    3dyz    3dz2    3dxz    3dx2-y2 4Ppy    4Ppz    
               4Ppx    
   1 10.956   0.828   1.896   1.944   1.928   1.947   1.916   0.157   0.122
              0.218
   2 10.950   0.823   1.898   1.944   1.927   1.947   1.916   0.162   0.120
              0.213
   3 10.950   0.823   1.898   1.944   1.927   1.947   1.916   0.162   0.120
              0.213
   4 10.954   0.826   1.895   1.944   1.930   1.947   1.916   0.160   0.126
              0.210
   5 10.949   0.819   1.899   1.944   1.928   1.947   1.917   0.160   0.123
              0.213
   6 10.949   0.819   1.899   1.944   1.928   1.947   1.917   0.160   0.123
              0.213
   7 10.946   0.815   1.899   1.943   1.928   1.947   1.917   0.165   0.123
              0.210
   8 10.964   0.839   1.895   1.942   1.925   1.946   1.916   0.161   0.123
              0.218
   9 10.964   0.839   1.895   1.942   1.925   1.946   1.916   0.161   0.123
              0.219
  10 11.041   0.823   1.902   1.863   1.933   1.921   1.931   0.226   0.217
              0.226
  11 11.041   0.823   1.902   1.863   1.933   1.921   1.931   0.226   0.217
              0.226
  12 11.044   0.820   1.894   1.869   1.932   1.917   1.931   0.230   0.225
              0.224
  13 11.048   0.831   1.896   1.871   1.932   1.916   1.931   0.231   0.216
              0.225
  14 11.048   0.831   1.896   1.871   1.932   1.916   1.931   0.231   0.216
              0.225
  15 11.048   0.834   1.897   1.871   1.935   1.909   1.933   0.232   0.208
              0.228
  16 11.041   0.821   1.901   1.860   1.933   1.923   1.931   0.228   0.218
              0.224
  17 11.041   0.821   1.901   1.860   1.933   1.923   1.931   0.228   0.218
              0.224
  18 11.039   0.819   1.893   1.871   1.932   1.920   1.932   0.227   0.221
              0.224
  19 11.047   0.824   1.892   1.870   1.937   1.915   1.932   0.229   0.225
              0.224
  20 11.019   0.819   1.889   1.896   1.929   1.921   1.928   0.223   0.193
              0.222
  21 11.044   0.826   1.890   1.870   1.940   1.922   1.930   0.230   0.215
              0.223
  22 11.044   0.826   1.890   1.870   1.940   1.922   1.930   0.230   0.215
              0.223
  23 11.042   0.825   1.893   1.869   1.937   1.922   1.929   0.229   0.214
              0.224
  24 11.042   0.825   1.893   1.869   1.937   1.922   1.929   0.229   0.214
              0.224
  25 11.053   0.838   1.882   1.887   1.937   1.916   1.931   0.227   0.210
              0.226
  26 11.051   0.828   1.887   1.871   1.937   1.920   1.930   0.231   0.221
              0.226
  27 11.051   0.828   1.887   1.870   1.937   1.920   1.930   0.231   0.221
              0.226
  28 10.949   0.824   1.890   1.946   1.921   1.947   1.916   0.163   0.128
              0.215
  29 10.802   0.715   1.903   1.931   1.923   1.897   1.922   0.130   0.203
              0.177
  30 10.802   0.715   1.903   1.931   1.923   1.897   1.922   0.130   0.203
              0.177
  31 10.948   0.825   1.890   1.945   1.923   1.948   1.916   0.162   0.130
              0.210
  32 10.936   0.823   1.895   1.945   1.914   1.954   1.916   0.167   0.124
              0.198
  33 10.951   0.826   1.890   1.946   1.920   1.947   1.916   0.163   0.128
              0.213
  34 10.951   0.826   1.890   1.946   1.920   1.947   1.916   0.163   0.128
              0.213
  35 10.971   0.847   1.887   1.943   1.921   1.945   1.917   0.159   0.131
              0.220
  36 10.971   0.848   1.887   1.943   1.921   1.945   1.917   0.159   0.132
              0.220

mulliken: Qtot =      403.000

outcoor: Relaxed atomic coordinates (Ang):                  
    0.00000000    3.64592370    0.00000000   3       1  Cu.mpn
    2.57805737    3.64592370    0.00000000   3       2  Cu.mpn
    5.15611474    3.64592370    0.00000000   3       3  Cu.mpn
    0.00000000    7.29184739    0.00000000   3       4  Cu.mpn
    2.57805737    7.29184739    0.00000000   3       5  Cu.mpn
    5.15611474    7.29184739    0.00000000   3       6  Cu.mpn
    0.00000000   10.93777108    0.00000000   3       7  Cu.mpn
    2.57805737   10.93777108    0.00000000   3       8  Cu.mpn
    5.15611474   10.93777108    0.00000000   3       9  Cu.mpn
   -1.28902868    1.82296185    1.28902868   3      10  Cu.mpn
    1.28902868    1.82296185    1.28902868   3      11  Cu.mpn
    3.86708605    1.82296185    1.28902868   3      12  Cu.mpn
   -1.28902868    5.46888554    1.28902868   3      13  Cu.mpn
    1.28908160    5.46888554    1.28902868   3      14  Cu.mpn
    3.86708605    5.46888554    1.28902868   3      15  Cu.mpn
   -1.28902868    9.11480924    1.28902868   3      16  Cu.mpn
    1.28908160    9.11480924    1.28902868   3      17  Cu.mpn
    3.86708605    9.11480924    1.28902868   3      18  Cu.mpn
   -0.00011416   10.93876406    2.61540938   3      19  Cu.mpn
   -0.00006929    7.27312721    2.60783892   3      20  Cu.mpn
    5.15484345   10.93547555    2.61583094   3      21  Cu.mpn
    2.57938063   10.93545160    2.61577689   3      22  Cu.mpn
    2.57461322    7.28461660    2.61458689   3      23  Cu.mpn
    5.15962274    7.28416665    2.61445319   3      24  Cu.mpn
    0.00010845    3.65108137    2.60768583   3      25  Cu.mpn
    2.57757528    3.65603111    2.61380707   3      26  Cu.mpn
    5.15637158    3.65577529    2.61365710   3      27  Cu.mpn
    3.86718793    9.10420536    3.77188962   3      28  Cu.mpn
    1.31094953    5.41331386    3.92067110   3      29  Cu.mpn
   -1.31137409    5.41008173    3.92127502   3      30  Cu.mpn
    3.86711683    1.83899495    3.77270119   3      31  Cu.mpn
    3.86696196    5.47886089    3.78061664   3      32  Cu.mpn
   -1.28753811    1.82899703    3.77393371   3      33  Cu.mpn
    1.28754725    1.82895917    3.77391015   3      34  Cu.mpn
    1.28629585    9.11245104    3.77539952   3      35  Cu.mpn
   -1.28620407    9.11216159    3.77534510   3      36  Cu.mpn
   -0.00069247    5.98805783    5.24422147   2      37  O.mpn
   -0.00226157    7.01603277    5.07854688   1      38  H.mpn

siesta: Eigenvalues (eV):
  ik is    eps
   1  1 -23.05 -11.40 -10.72 -10.28 -10.21  -9.33  -9.29  -9.01  -8.70  -8.63
         -8.61  -8.60  -8.52  -8.46  -8.20  -8.20  -8.14  -8.00  -7.89  -7.89
         -7.82  -7.75  -7.72  -7.72  -7.71  -7.62  -7.57  -7.54  -7.50  -7.44
         -7.42  -7.41  -7.40  -7.39  -7.38  -7.35  -7.33  -7.32  -7.32  -7.30
         -7.26  -7.22  -7.17  -7.10  -7.09  -7.06  -7.06  -7.05  -7.05  -7.03
         -7.02  -6.96  -6.94  -6.94  -6.93  -6.90  -6.83  -6.82  -6.72  -6.70
         -6.69  -6.68  -6.66  -6.63  -6.62  -6.61  -6.60  -6.60  -6.53  -6.53
         -6.51  -6.50  -6.49  -6.49  -6.48  -6.47  -6.45  -6.45  -6.44  -6.44
         -6.41  -6.40  -6.39  -6.39  -6.34  -6.32  -6.32  -6.32  -6.31  -6.30
         -6.27  -6.23  -6.23  -6.23  -6.22  -6.18  -6.16  -6.15  -6.15  -6.13
         -6.11  -6.11  -6.08  -6.05  -6.04  -6.00  -5.95  -5.92  -5.90  -5.90
         -5.87  -5.85  -5.82  -5.82  -5.81  -5.80  -5.78  -5.75  -5.75  -5.73
         -5.71  -5.70  -5.69  -5.67  -5.66  -5.65  -5.65  -5.64  -5.63  -5.63
         -5.62  -5.60  -5.57  -5.54  -5.53  -5.52  -5.51  -5.50  -5.47  -5.44
         -5.43  -5.41  -5.40  -5.37  -5.36  -5.36  -5.36  -5.35  -5.34  -5.32
         -5.31  -5.31  -5.31  -5.28  -5.28  -5.27  -5.26  -5.26  -5.25  -5.25
         -5.23  -5.22  -5.21  -5.19  -5.18  -5.17  -5.17  -5.16  -5.15  -5.14
         -5.14  -5.13  -5.12  -5.11  -5.11  -5.10  -5.10  -5.09  -5.09  -5.08
         -5.07  -5.07  -5.05  -5.04  -5.03  -5.02  -5.01  -4.99  -4.99  -4.97
         -4.96  -4.96  -4.93  -4.92  -4.89  -4.89  -4.58  -4.42  -4.29  -4.16
         -3.91  -3.42  -3.42  -3.30  -3.28  -3.19  -2.85  -2.15  -2.12  -2.07
         -2.06  -2.04  -2.02  -1.75  -1.63  -0.86  -0.74  -0.70  -0.62  -0.60
         -0.43  -0.38   0.25   0.40   0.79   0.84   0.87   0.90   1.06   2.07
          2.13   2.17   2.30   2.51   2.63   3.25   3.28   3.30   3.37   3.47
          3.55   3.59   3.66   3.85   4.02   4.14   4.42   5.09   5.13   5.20
          5.53   5.60   5.84   6.05   6.19   6.43   6.45   6.70   6.81   7.06
          7.45   8.04   8.05   8.08   8.15   8.55   8.79   9.05   9.05   9.34
         10.15  10.45  10.47  10.72  10.72  10.92  10.93  11.06  11.07  11.11
         11.95  11.95  12.13  12.34  12.67  12.95  12.95  13.31  13.45  13.59
         13.79  13.88  14.46  14.48  15.00  15.07  15.35  15.41  15.44  15.75
         16.10  16.69  17.48  17.52  17.65  17.70  18.20  18.37  18.39  18.59
         18.84  18.97  19.07  19.40  19.46  19.77  19.83  19.91  20.01  20.63
         20.81  20.93  21.13  22.23  22.31  22.56  22.66  23.48  23.77  24.14
         27.23  32.03  36.50  36.51  41.59  44.54  49.85
siesta: Fermi energy =      -3.446765 eV

siesta: Program's energy decomposition (eV):
siesta: Ebs     =     -2563.106022
siesta: Eions   =     52362.821533
siesta: Ena     =       743.493791
siesta: Ekin    =     48580.206741
siesta: Enl     =    -31844.764852
siesta: Eso     =         0.000000
siesta: Eldau   =         0.000000
siesta: DEna    =       229.188708
siesta: DUscf   =        41.776745
siesta: DUext   =         0.003582
siesta: Exc     =    -20076.540628
siesta: eta*DQ  =         0.000000
siesta: Emadel  =         0.000000
siesta: Emeta   =         0.000000
siesta: Emolmec =         0.000000
siesta: Ekinion =         0.000000
siesta: Eharris =    -54689.457445
siesta: Etot    =    -54689.457445
siesta: FreeEng =    -54689.517131

siesta: Final energy (eV):
siesta:  Band Struct. =   -2563.106022
siesta:       Kinetic =   48580.206741
siesta:       Hartree =   77658.168934
siesta:       Eldau   =       0.000000
siesta:       Eso     =       0.000000
siesta:    Ext. field =       0.003582
siesta:   Exch.-corr. =  -20076.540628
siesta:  Ion-electron = -195377.589299
siesta:       Ion-ion =   34526.293225
siesta:       Ekinion =       0.000000
siesta:         Total =  -54689.457445
siesta:         Fermi =      -3.446765

siesta: Atomic forces (eV/Ang):
siesta:      1    0.000096   -0.062812    0.264257
siesta:      2   -0.000225   -0.075265    0.331393
siesta:      3    0.000173   -0.075296    0.331253
siesta:      4    0.000012    0.065320    0.327441
siesta:      5    0.016103    0.072340    0.337236
siesta:      6   -0.016041    0.072300    0.337271
siesta:      7    0.000040   -0.052393    0.389009
siesta:      8    0.175891    0.039551    0.246675
siesta:      9   -0.175873    0.039272    0.246931
siesta:     10    0.009554    0.016747   -0.222047
siesta:     11   -0.009223    0.016507   -0.222102
siesta:     12   -0.000466   -0.019243   -0.290051
siesta:     13    0.010558   -0.017276    0.118285
siesta:     14   -0.012028   -0.016750    0.117805
siesta:     15   -0.000188   -0.014746   -0.173314
siesta:     16    0.055303   -0.010824   -0.202739
siesta:     17   -0.057421   -0.010653   -0.202186
siesta:     18    0.000297   -0.002163   -0.204584
siesta:     19    0.001347    0.002351    0.003484
siesta:     20    0.000113    0.007949   -0.019909
siesta:     21   -0.005949    0.005406   -0.002984
siesta:     22    0.004870    0.005968   -0.002006
siesta:     23    0.000403    0.001015    0.000341
siesta:     24    0.000425    0.000788    0.004785
siesta:     25   -0.001275   -0.003762   -0.001000
siesta:     26    0.003925    0.004541   -0.004598
siesta:     27   -0.000335    0.005091   -0.002906
siesta:     28   -0.001447   -0.005942   -0.004793
siesta:     29    0.009269   -0.008076   -0.007445
siesta:     30   -0.012836   -0.003330   -0.019672
siesta:     31   -0.000974    0.009425   -0.009836
siesta:     32    0.002018    0.008017   -0.006390
siesta:     33   -0.000864   -0.000443    0.002468
siesta:     34    0.000838   -0.000898    0.002480
siesta:     35   -0.010263    0.006418    0.000638
siesta:     36    0.008697    0.005636    0.003138
siesta:     37    0.009634    0.001589    0.005632
siesta:     38    0.000526   -0.018922   -0.000120
siesta: ----------------------------------------
siesta:    Tot    0.004683   -0.012565    1.471840

siesta: Stress tensor (static) (eV/Ang**3):
siesta:    -0.009006   -0.000012   -0.000001
siesta:    -0.000012    0.001358   -0.000049
siesta:    -0.000001   -0.000049   -0.010152

siesta: Cell volume =       1106.333084 Ang**3

siesta: Pressure (static):
siesta:                Solid            Molecule  Units
siesta:           0.00006462          0.00008035  Ry/Bohr**3
siesta:           0.00593333          0.00737754  eV/Ang**3
siesta:           9.50635298         11.82024634  kBar
(Free)E+ p_basis*V_orbitals  =      -54667.408801
(Free)Eharris+ p_basis*V_orbitals  =      -54667.408801

siesta: Electric dipole (a.u.)  =    0.000000   -0.000000   -0.395503
siesta: Electric dipole (Debye) =    0.000000   -0.000000   -1.005269
>> End of run:   7-MAY-2018  14:34:30
Job completed
