Siesta Version:                                        siesta-trunk-301
Architecture  : x86_64-unknown-linux-gnu--Intel
Compiler flags: /home/mpn/local/mpich2-1.0.8/bin/mpif90 -O2 -mp1 -cpp -I /home/mpn/local/netcdf/include -mtune=core2 -march=core2
PARALLEL version
TRANSIESTA support
NetCDF support

* Running in serial mode with MPI
>> Start of run:  28-OCT-2009  21:41:16

                           ***********************       
                           *  WELCOME TO SIESTA  *       
                           ***********************       

reinit: Reading from standard input
************************** Dump of input data file ****************************
SystemTitle Chain
SystemLabel Chain
SolutionMethod      Transiesta
MD.TypeOfRun        CG
MD.NumCGsteps       0
MD.MaxCGDispl       0.05 Ang
DM.NumberPulay      10
DM.MixingWeight     0.02
DM.Tolerance        1.d-4
MaxSCFIterations    200
MeshCutoff          200. Ry
####################################
# NOTE:
NeglNonOverlapInt   True
####################################
%block kgrid_Monkhorst_Pack
 1    0    0    0.0
 0    1    0    0.0
 0    0    2    0.0
%endblock kgrid_Monkhorst_Pack
%block ChemicalSpeciesLabel
    1   79 Au_pbr                  # Species index, atomic number, species label
    2   1  H.mpn                   # Species index, atomic number, species label
%endblock ChemicalSpeciesLabel
PAO.BasisSize     DZP
PAO.BasisType	split
xc.functional         GGA           # Exchange-correlation functional
xc.authors            PBE           # Exchange-correlation version
DM.UseSaveDM          true          # to use continuation files
TS.HSFileLeft     ELEC/Electrode.TSHS
TS.HSFileRight    ELEC/Electrode.TSHS
%include STRUCT.fdf
%include TBTRANS.fdf
************************** End of input data file *****************************

reinit: -----------------------------------------------------------------------
reinit: System Name: 
reinit: -----------------------------------------------------------------------
reinit: System Label: Chain                                                       
reinit: -----------------------------------------------------------------------

initatom: Reading input for the pseudopotentials and atomic orbitals ----------
 Species number:            1  Label: Au_pbr Atomic number:          79
 Species number:            2  Label: H.mpn Atomic number:           1
Ground state valence configuration:   6s01  5d10
Reading pseudopotential information in unformatted form from Au_pbr.vps

Pseudopotential generated from a relativistic atomic calculation
There are spin-orbit pseudopotentials available
Spin-orbit interaction is not included in this calculation

Valence configuration for pseudopotential generation:
6s( 1.00) rc: 2.29
6p( 0.00) rc: 3.14
5d(10.00) rc: 1.20
5f( 0.00) rc: 3.14
Ground state valence configuration:   1s01
Reading pseudopotential information in unformatted form from H.mpn.vps

Pseudopotential generated from a relativistic atomic calculation
There are spin-orbit pseudopotentials available
Spin-orbit interaction is not included in this calculation

Valence configuration for pseudopotential generation:
1s( 1.00) rc: 1.25
2p( 0.00) rc: 1.25
3d( 0.00) rc: 1.25
4f( 0.00) rc: 1.19
For Au_pbr, standard SIESTA heuristics set lmxkb to 3
 (one more than the basis l, including polarization orbitals).
Use PS.lmax or PS.KBprojectors blocks to override.
For H.mpn, standard SIESTA heuristics set lmxkb to 2
 (one more than the basis l, including polarization orbitals).
Use PS.lmax or PS.KBprojectors blocks to override.

<basis_specs>
===============================================================================
Au_pbr               Z=  79    Mass=  196.97        Charge= 0.17977+309
Lmxo=2 Lmxkb=3     BasisType=split      Semic=F
L=0  Nsemic=0  Cnfigmx=6
          n=1  nzeta=2  polorb=1
            splnorm:   0.15000    
               vcte:    0.0000    
               rinn:    0.0000    
                rcs:    0.0000      0.0000    
            lambdas:    1.0000      1.0000    
L=1  Nsemic=0  Cnfigmx=6
L=2  Nsemic=0  Cnfigmx=5
          n=1  nzeta=2  polorb=0
            splnorm:   0.15000    
               vcte:    0.0000    
               rinn:    0.0000    
                rcs:    0.0000      0.0000    
            lambdas:    1.0000      1.0000    
-------------------------------------------------------------------------------
L=0  Nkbl=1  erefs: 0.17977+309
L=1  Nkbl=1  erefs: 0.17977+309
L=2  Nkbl=1  erefs: 0.17977+309
L=3  Nkbl=1  erefs: 0.17977+309
===============================================================================
</basis_specs>

atom: Called for Au_pbr                (Z =  79)

read_vps: Pseudopotential generation method:
read_vps: ATM3      Troullier-Martins                       
Total valence charge:   11.00000

read_vps: Pseudopotential includes a core correction:
read_vps: Pseudo-core for xc-correction

xc_check: Exchange-correlation functional:
xc_check: GGA Perdew, Burke & Ernzerhof 1996
V l=0 = -2*Zval/r beyond r=  2.9833
V l=1 = -2*Zval/r beyond r=  3.1363
V l=2 = -2*Zval/r beyond r=  2.9833
V l=3 = -2*Zval/r beyond r=  3.1363
All V_l potentials equal beyond r=  3.0973
This should be close to max(r_c) in ps generation
All pots = -2*Zval/r beyond r=  3.1363

VLOCAL1: 99.0% of the norm of Vloc inside      4.525 Ry
VLOCAL1: 99.9% of the norm of Vloc inside     10.312 Ry
atom: Maximum radius for 4*pi*r*r*local-pseudopot. charge    3.73611
atom: Maximum radius for r*vlocal+2*Zval:    3.29710
GHOST: No ghost state for L =  0
GHOST: No ghost state for L =  1
GHOST: No ghost state for L =  2
GHOST: No ghost state for L =  3

KBgen: Kleinman-Bylander projectors: 
   l= 0   rc=  3.423088   el= -0.421435   Ekb=  5.114239   kbcos=  0.182513
   l= 1   rc=  3.553892   el= -0.058080   Ekb=  1.612319   kbcos=  0.221966
   l= 2   rc=  3.256140   el= -0.508574   Ekb= -6.472599   kbcos= -0.707183
   l= 3   rc=  3.643860   el=  0.003083   Ekb= -1.026026   kbcos= -0.026089

KBgen: Total number of  Kleinman-Bylander projectors:   16
atom: -------------------------------------------------------------------------

atom: SANKEY-TYPE ORBITALS:
atom: Selected multiple-zeta basis: split     

SPLIT: Orbitals with angular momentum L= 0

SPLIT: Basis orbitals for state 6s

SPLIT: PAO cut-off radius determined from an
SPLIT: energy shift=  0.020000 Ry

   izeta = 1
                 lambda =    1.000000
                     rc =    6.083298
                 energy =   -0.401245
                kinetic =    0.410387
    potential(screened) =   -0.811633
       potential(ionic) =   -8.546288

   izeta = 2
                 rmatch =    5.714728
              splitnorm =    0.150000
                 energy =   -0.334451
                kinetic =    0.631788
    potential(screened) =   -0.966238
       potential(ionic) =   -9.133087

SPLIT: Orbitals with angular momentum L= 2

SPLIT: Basis orbitals for state 5d

SPLIT: PAO cut-off radius determined from an
SPLIT: energy shift=  0.020000 Ry

   izeta = 1
                 lambda =    1.000000
                     rc =    4.286818
                 energy =   -0.490514
                kinetic =    5.136108
    potential(screened) =   -5.626622
       potential(ionic) =  -16.178571

   izeta = 2
                 rmatch =    2.802581
              splitnorm =    0.150000
                 energy =   -0.198467
                kinetic =    7.102923
    potential(screened) =   -7.301389
       potential(ionic) =  -18.591160

POLgen: Perturbative polarization orbital with L=  1

POLgen: Polarization orbital for state 6s

   izeta = 1
                     rc =    6.083298
                 energy =   -0.048330
                kinetic =    0.728192
    potential(screened) =   -0.776522
       potential(ionic) =   -8.118288
atom: Total number of Sankey-type orbitals: 15

atm_pop: Valence configuration (for local Pseudopot. screening):
 6s( 1.00)                                                            
 6p( 0.00)                                                            
 5d(10.00)                                                            
Vna: chval, zval:   11.00000  11.00000

Vna:  Cut-off radius for the neutral-atom potential:   6.083298
comcore: Pseudo-core radius Rcore=  4.027091

atom: _________________________________________________________________________

<basis_specs>
===============================================================================
H.mpn                Z=   1    Mass=  1.0100        Charge= 0.17977+309
Lmxo=0 Lmxkb=2     BasisType=split      Semic=F
L=0  Nsemic=0  Cnfigmx=1
          n=1  nzeta=2  polorb=1
            splnorm:   0.15000    
               vcte:    0.0000    
               rinn:    0.0000    
                rcs:    0.0000      0.0000    
            lambdas:    1.0000      1.0000    
-------------------------------------------------------------------------------
L=0  Nkbl=1  erefs: 0.17977+309
L=1  Nkbl=1  erefs: 0.17977+309
L=2  Nkbl=1  erefs: 0.17977+309
===============================================================================
</basis_specs>

atom: Called for H.mpn                 (Z =   1)

read_vps: Pseudopotential generation method:
read_vps: ATM3      Troullier-Martins                       
Total valence charge:    1.00000

xc_check: Exchange-correlation functional:
xc_check: GGA Perdew, Burke & Ernzerhof 1996
V l=0 = -2*Zval/r beyond r=  1.2343
V l=1 = -2*Zval/r beyond r=  1.2189
V l=2 = -2*Zval/r beyond r=  1.2189
All V_l potentials equal beyond r=  1.2343
This should be close to max(r_c) in ps generation
All pots = -2*Zval/r beyond r=  1.2343

VLOCAL1: 99.0% of the norm of Vloc inside     28.493 Ry
VLOCAL1: 99.9% of the norm of Vloc inside     64.935 Ry
atom: Maximum radius for 4*pi*r*r*local-pseudopot. charge    1.45251
atom: Maximum radius for r*vlocal+2*Zval:    1.21892
GHOST: No ghost state for L =  0
GHOST: No ghost state for L =  1
GHOST: No ghost state for L =  2

KBgen: Kleinman-Bylander projectors: 
   l= 0   rc=  1.398961   el= -0.477184   Ekb= -2.022489   kbcos= -0.344760
   l= 1   rc=  1.730774   el=  0.001076   Ekb= -0.447448   kbcos= -0.022756
   l= 2   rc=  2.036604   el=  0.002010   Ekb= -0.163621   kbcos= -0.002660

KBgen: Total number of  Kleinman-Bylander projectors:    9
atom: -------------------------------------------------------------------------

atom: SANKEY-TYPE ORBITALS:
atom: Selected multiple-zeta basis: split     

SPLIT: Orbitals with angular momentum L= 0

SPLIT: Basis orbitals for state 1s

SPLIT: PAO cut-off radius determined from an
SPLIT: energy shift=  0.020000 Ry

   izeta = 1
                 lambda =    1.000000
                     rc =    4.708991
                 energy =   -0.457736
                kinetic =    0.981128
    potential(screened) =   -1.438864
       potential(ionic) =   -1.967294

   izeta = 2
                 rmatch =    3.759707
              splitnorm =    0.150000
                 energy =   -0.338971
                kinetic =    1.585754
    potential(screened) =   -1.924724
       potential(ionic) =   -2.475189

POLgen: Perturbative polarization orbital with L=  1

POLgen: Polarization orbital for state 1s

   izeta = 1
                     rc =    4.708991
                 energy =    0.764910
                kinetic =    1.475806
    potential(screened) =   -0.710896
       potential(ionic) =   -1.203352
atom: Total number of Sankey-type orbitals:  5

atm_pop: Valence configuration (for local Pseudopot. screening):
 1s( 1.00)                                                            
Vna: chval, zval:    1.00000   1.00000

Vna:  Cut-off radius for the neutral-atom potential:   4.708991

atom: _________________________________________________________________________

prinput: Basis input ----------------------------------------------------------

PAO.BasisType split     

%block ChemicalSpeciesLabel
    1   79 Au_pbr                  # Species index, atomic number, species label
    2    1 H.mpn                   # Species index, atomic number, species label
%endblock ChemicalSpeciesLabel

%block PAO.Basis                 # Define Basis set
Au_pbr                2                    # Species label, number of l-shells
 n=6   0   2 P   1                   # n, l, Nzeta, Polarization, NzetaPol
   6.083      5.715   
   1.000      1.000   
 n=5   2   2                         # n, l, Nzeta 
   4.287      2.803   
   1.000      1.000   
H.mpn                 1                    # Species label, number of l-shells
 n=1   0   2 P   1                   # n, l, Nzeta, Polarization, NzetaPol
   4.709      3.760   
   1.000      1.000   
%endblock PAO.Basis

prinput: ----------------------------------------------------------------------

Dumping basis to NetCDF file Au_pbr.ion.nc
Dumping basis to NetCDF file H.mpn.ion.nc
coor:   Atomic-coordinates input format  =     Cartesian coordinates
coor:                                          (in Angstroms)

siesta: Atomic coordinates (Bohr) and species
siesta:      0.00000   0.00000  -4.79991  1        1
siesta:      0.00000   0.00000   0.00000  1        2
siesta:      0.00000   0.00000   4.79991  1        3
siesta:      0.00000   0.00000   9.59981  1        4
siesta:      0.00000   0.00000  14.39972  1        5
siesta:      0.00000   0.00000  19.19963  1        6
siesta:      0.00000   0.00000  23.99953  1        7
siesta:      0.00000   0.00000  28.79944  1        8
siesta:      0.00000   0.00000  33.59934  1        9
siesta:      0.00000   0.00000  38.39925  1       10
siesta:      0.00000   0.00000  43.32196  1       11
siesta:      0.00000   0.00000  46.63245  2       12
siesta:      0.00000   0.00000  48.46592  2       13
siesta:      0.00000   0.00000  51.77067  1       14
siesta:      0.00000   0.00000  56.69181  1       15
siesta:      0.00000   0.00000  61.49171  1       16
siesta:      0.00000   0.00000  66.29162  1       17
siesta:      0.00000   0.00000  71.09153  1       18
siesta:      0.00000   0.00000  75.89143  1       19
siesta:      0.00000   0.00000  80.69134  1       20
siesta:      0.00000   0.00000  85.49124  1       21
siesta:      0.00000   0.00000  90.29115  1       22
siesta:      0.00000   0.00000  95.09106  1       23
siesta:      0.00000   0.00000  99.89096  1       24

siesta: System type = chain     

initatomlists: Number of atoms, orbitals, and projectors:     24   340   370

siesta: ******************** Simulation parameters ****************************
siesta:
siesta: The following are some of the parameters of the simulation.
siesta: A complete list of the parameters used, including default values,
siesta: can be found in file out.fdf
siesta:
redata: Non-Collinear-spin run           =     F
redata: SpinPolarized (Up/Down) run      =     F
redata: Number of spin components        =     1
redata: Long output                      =     F
redata: Number of Atomic Species         =        2
redata: Charge density info will appear in .RHO file
redata: Write Mulliken Pop.              =     NO
redata: Mesh Cutoff                      =   200.0000  Ry
redata: Net charge of the system         =     0.0000 |e|
redata: Max. number of SCF Iter          =      200
redata: Performing Pulay mixing using    =    10 iterations
redata: Mix DM in first SCF step ?       =     F
redata: Write Pulay info on disk?        =     F
redata: New DM Mixing Weight             =     0.0200
redata: New DM Occupancy tolerance       = 0.000000000001
redata: No kicks to SCF
redata: DM Mixing Weight for Kicks       =     0.5000
redata: DM Tolerance for SCF             =     0.000100
redata: Require Energy convergence for SCF =     F
redata: DM Energy tolerance for SCF      =     0.000100 eV
redata: Require Harris convergence for SCF =     F
redata: DM Harris energy tolerance for SCF =     0.000100 eV
redata: Using Saved Data (generic)   =     F
redata: Use continuation files for DM    =     T
redata: Neglect nonoverlap interactions  =     T
redata: Method of Calculation            =         Transiesta
redata: Fix the spin of the system       =     F
redata: Dynamics option                  =     CG coord. optimization
redata: Variable cell                    =     F
redata: Use continuation files for CG    =     F
redata: Max atomic displ per move        =     0.0945  Bohr
redata: Maximum number of CG moves       =        0
redata: Force tolerance                  =     0.0016  Ry/Bohr
redata: ***********************************************************************
 
ts_read_options: **************************************************************
ts_read_options: Save H and S matrices        =    T
ts_read_options: Mixing Hamiltonian           =    F
ts_read_options: TranSIESTA Voltage           =    0.0000 Volts
ts_read_options: TriDiag                      =    F
ts_read_options: Update DM Contact Reg. only  =    T
ts_read_options: N. Buffer At. Left           =    0
ts_read_options: N. Buffer At. Right          =    0
ts_read_options: N. Pts. Circle               =   24
ts_read_options: N. Pts. Line                 =    6
ts_read_options: N. Poles in Contour          =    6
ts_read_options: N. Pts. Bias Contour         =    5
ts_read_options: Contour E Min.               =   -3.0000 Ry
ts_read_options: GFEta                        =    0.000001 Ry
ts_read_options: Electronic Temperature       =    0.0019 Ry
ts_read_options: Bias Contour Method          =    gaussfermi          
ts_read_options: Left GF File                 =    Left.GF                          
ts_read_options: Right GF File                =    Right.GF                         
ts_read_options: Calculate GF                 =    T
ts_read_options: **************************************************************
 
************************ Begin: TS CHECKS AND WARNINGS ************************
************************ End: TS CHECKS AND WARNINGS **************************
 
Total number of electrons:   244.000000
Total ionic charge:   244.000000

* ProcessorY, Blocksize:    1  24

k-point displ. along   3 input, could be:     0.00    0.50
 Kpoints in:            2 . Kpoints trimmed:            2

siesta: k-grid: Number of k-points =     2
siesta: k-grid: Cutoff (effective) =     4.500 Ang
siesta: k-grid: Supercell and displacements
siesta: k-grid:    1   0   0      0.000
siesta: k-grid:    0   1   0      0.000
siesta: k-grid:    0   0   2      0.000
 Kpoints in:            1 . Kpoints trimmed:            1

transiesta: ts_k-grid: Number of Transport k-points =     1
transiesta: ts_k-grid: Supercell and displacements
transiesta: ts_k-grid:    1   0   0      0.000
transiesta: ts_k-grid:    0   1   0      0.000
 
Naive supercell factors:     2    2    1

superc: Internal auxiliary supercell:     2 x     2 x     1  =       4
superc: Number of atoms, orbitals, and projectors:     96   1360   1480

* Maximum dynamic memory allocated =     1 MB

siesta:                 ==============================
                            Begin CG move =      0
                        ==============================

superc: Internal auxiliary supercell:     2 x     2 x     1  =       4
superc: Number of atoms, orbitals, and projectors:     96   1360   1480

outcell: Unit cell vectors (Ang):
        9.000000    0.000000    0.000000
        0.000000    9.000000    0.000000
        0.000000    0.000000   57.940000

outcell: Cell vector modules (Ang)   :    9.000000    9.000000   57.940000
outcell: Cell angles (23,13,12) (deg):     90.0000     90.0000     90.0000
outcell: Cell volume (Ang**3)        :   4693.1400
New_DM. Step:     1
Initializing Density Matrix...

iodm: Reading Density Matrix from files
TRANSIESTA: No TS-DensityMatrix file found
TRANSIESTA: Initialization runs using diagon

InitMesh: MESH =    80 x    80 x   500 =     3200000
InitMesh: Mesh cutoff (required, used) =   200.000   205.819 Ry

* Maximum dynamic memory allocated =   102 MB

stepf: Fermi-Dirac step function

siesta: Program's energy decomposition (eV):
siesta: Eions   =     20945.069455
siesta: Ena     =        82.907911
siesta: Ekin    =     14683.712438
siesta: Enl     =     -9512.670084
siesta: DEna    =        13.368462
siesta: DUscf   =        16.156305
siesta: DUext   =         0.000000
siesta: Exc     =    -15836.733024
siesta: eta*DQ  =         0.000000
siesta: Emadel  =         0.000000
siesta: Emeta   =         0.000000
siesta: Emolmec =         0.000000
siesta: Ekinion =         0.000000
siesta: Eharris =    -31502.708747
siesta: Etot    =    -31498.327446
siesta: FreeEng =    -31498.327446

siesta: iscf   Eharris(eV)      E_KS(eV)   FreeEng(eV)   dDmax  Ef(eV)
siesta:    1   -31502.7087   -31498.3274   -31498.3274  0.3711 -3.7232
timer: Routine,Calls,Time,% =    IterSCF     1      41.979  93.71
siesta:    2   -39942.0224   -31241.3179   -31241.3179 92.5387-41.3760
siesta:    3   -31499.8715   -31498.2283   -31498.2283  0.2086 -4.7852
siesta:    4   -31499.1366   -31498.2589   -31498.2589  0.2885 -4.5832
siesta:    5   -31498.6552   -31498.2639   -31498.2639  0.2541 -4.6259
siesta:    6   -31498.5478   -31498.2659   -31498.2659  0.1211 -4.7043
siesta:    7   -31498.4041   -31498.2686   -31498.2686  0.0480 -4.6899
siesta:    8   -31498.3929   -31498.2697   -31498.2697  0.0334 -4.7029
siesta:    9   -31498.3944   -31498.2727   -31498.2727  0.0428 -4.6774
siesta:   10   -31498.3739   -31498.2732   -31498.2732  0.0172 -4.6942
siesta:   11   -31498.3700   -31498.2753   -31498.2753  0.0140 -4.6898
siesta:   12   -31498.3686   -31498.2782   -31498.2782  0.0078 -4.6917
siesta:   13   -31498.3664   -31498.2916   -31498.2916  0.0067 -4.6838
siesta:   14   -31498.3662   -31498.2983   -31498.2983  0.0049 -4.6809
siesta:   15   -31498.3663   -31498.3018   -31498.3018  0.0059 -4.6802
siesta:   16   -31498.3663   -31498.3134   -31498.3134  0.0037 -4.6781
siesta:   17   -31498.3661   -31498.3175   -31498.3175  0.0033 -4.6775
siesta:   18   -31498.3663   -31498.3465   -31498.3465  0.0020 -4.6796
siesta:   19   -31498.3663   -31498.3566   -31498.3566  0.0020 -4.6787
siesta:   20   -31498.3660   -31498.3573   -31498.3573  0.0017 -4.6785
siesta:   21   -31498.3660   -31498.3591   -31498.3591  0.0014 -4.6789
siesta:   22   -31498.3660   -31498.3628   -31498.3628  0.0006 -4.6797
siesta:   23   -31498.3661   -31498.3627   -31498.3627  0.0003 -4.6802
siesta:   24   -31498.3661   -31498.3646   -31498.3646  0.0006 -4.6801
siesta:   25   -31498.3661   -31498.3638   -31498.3638  0.0003 -4.6801
