
                           ***********************       
                           *  WELCOME TO SIESTA  *       
                           ***********************       

reinit: Reading from standard input
reinit: Dumped input in INPUT_TMP.17446
************************** Dump of input data file ****************************
SystemName          NH3
SystemLabel         NH3
PAO.BasisType split
%block 	PAO.BasisSizes
	H.mpn		DZP
	N.mpn		DZP
%endblock PAO.BasisSizes
LongOutput      T
MD.TypeOfRun    CG
MD.NumCGsteps   230
MD.VariableCell F
WriteCoorStep	T
SolutionMethod	diagon
WriteMDXmol     T
%block ChemicalSpeciesLabel
 1  1  H.mpn
 2  7  N.mpn
%endblock ChemicalSpeciesLabel
%block GeometryConstraints
position from 1 to 1
%endblock GeometryConstraints
%include ./STRUCT.fdf
%include ./Default.fdf
# Restat calculations?
UseSaveData     T
MD.UseSaveXV    T
MD.UseSaveCG    T
************************** End of input data file *****************************

reinit: -----------------------------------------------------------------------
reinit: System Name: NH3
reinit: -----------------------------------------------------------------------
reinit: System Label: NH3
reinit: -----------------------------------------------------------------------
Siesta Version: siesta-4.1--736
Architecture  : unknown
Compiler flags: mpif90 -m64 -O2 -fPIC -funroll-loops -fprefetch-loop-arrays -fno-second-underrscore -fbacktrace -ftree-vectorize  -I/bionano2/netcdf/include -I/bionano2/netcdf/../hdf5/include
PP flags      : -DMPI -DCDF -DNCDF_4 -DFC_HAVE_ABORT -DTRANSIESTA
Libraries     : libncdf.a libfdict.a  /bionano2/lib/libscalapack.a -L/bionano2/openblas/lib --lopenblas -pthread -L/bionano2/netcdf/lib -L/bionano2/hdf5/lib -lnetcdff -lnetcdf -lhdf5hl_fortran -lhdf5_fortran -lhdf5_hl -lhdf5 -lz
PARALLEL version
TRANSIESTA support
NetCDF support
NetCDF-4 support

* Running on 8 nodes in parallel
>> Start of run:  22-MAR-2018  13:49:58

initatom: Reading input for the pseudopotentials and atomic orbitals ----------
Species number:   1 Atomic number:    1 Label: H.mpn
Species number:   2 Atomic number:    7 Label: N.mpn

Ground state valence configuration:   1s01
Reading pseudopotential information in unformatted form from H.mpn.vps

Pseudopotential generated from a relativistic atomic calculation
There are spin-orbit pseudopotentials available
Spin-orbit interaction is not included in this calculation

Valence configuration for pseudopotential generation:
1s( 1.00) rc: 1.25
2p( 0.00) rc: 1.25
3d( 0.00) rc: 1.25
4f( 0.00) rc: 1.19
Ground state valence configuration:   2s02  2p03
Reading pseudopotential information in unformatted form from N.mpn.vps

Pseudopotential generated from a relativistic atomic calculation
There are spin-orbit pseudopotentials available
Spin-orbit interaction is not included in this calculation

Valence configuration for pseudopotential generation:
2s( 2.00) rc: 1.24
2p( 3.00) rc: 1.24
3d( 0.00) rc: 2.00
4f( 0.00) rc: 2.00
resizes: Read basis size for species H.mpn = dzp                 
resizes: Read basis size for species N.mpn = dzp                 
For H.mpn, standard SIESTA heuristics set lmxkb to 2
 (one more than the basis l, including polarization orbitals).
Use PS.lmax or PS.KBprojectors blocks to override.
For N.mpn, standard SIESTA heuristics set lmxkb to 3
 (one more than the basis l, including polarization orbitals).
Use PS.lmax or PS.KBprojectors blocks to override.

<basis_specs>
===============================================================================
H.mpn                Z=   1    Mass=  1.0100        Charge= 0.17977+309
Lmxo=0 Lmxkb= 2    BasisType=split      Semic=F
L=0  Nsemic=0  Cnfigmx=1
          n=1  nzeta=2  polorb=1
            splnorm:   0.15000    
               vcte:    0.0000    
               rinn:    0.0000    
               qcoe:    0.0000    
               qyuk:    0.0000    
               qwid:   0.10000E-01
                rcs:    0.0000      0.0000    
            lambdas:    1.0000      1.0000    
-------------------------------------------------------------------------------
L=0  Nkbl=1  erefs: 0.17977+309
L=1  Nkbl=1  erefs: 0.17977+309
L=2  Nkbl=1  erefs: 0.17977+309
===============================================================================
</basis_specs>

atom: Called for H.mpn                 (Z =   1)

read_vps: Pseudopotential generation method:
read_vps: ATM3      Troullier-Martins                       
Total valence charge:    1.00000

xc_check: Exchange-correlation functional:
xc_check: GGA Perdew, Burke & Ernzerhof 1996
V l=0 = -2*Zval/r beyond r=  1.2343
V l=1 = -2*Zval/r beyond r=  1.2189
V l=2 = -2*Zval/r beyond r=  1.2189
All V_l potentials equal beyond r=  1.2343
This should be close to max(r_c) in ps generation
All pots = -2*Zval/r beyond r=  1.2343

VLOCAL1: 99.0% of the norm of Vloc inside     28.493 Ry
VLOCAL1: 99.9% of the norm of Vloc inside     64.935 Ry
atom: Maximum radius for 4*pi*r*r*local-pseudopot. charge    1.45251
atom: Maximum radius for r*vlocal+2*Zval:    1.21892
GHOST: No ghost state for L =  0
GHOST: No ghost state for L =  1
GHOST: No ghost state for L =  2

KBgen: Kleinman-Bylander projectors: 
   l= 0   rc=  1.398961   el= -0.477184   Ekb= -2.022489   kbcos= -0.344760
   l= 1   rc=  1.730774   el=  0.001076   Ekb= -0.447448   kbcos= -0.022756
   l= 2   rc=  2.036604   el=  0.002010   Ekb= -0.163621   kbcos= -0.002660

KBgen: Total number of  Kleinman-Bylander projectors:    9
atom: -------------------------------------------------------------------------

atom: SANKEY-TYPE ORBITALS:
atom: Selected multiple-zeta basis: split     

SPLIT: Orbitals with angular momentum L= 0

SPLIT: Basis orbitals for state 1s

SPLIT: PAO cut-off radius determined from an
SPLIT: energy shift=  0.010000 Ry

   izeta = 1
                 lambda =    1.000000
                     rc =    5.204501
                 energy =   -0.466856
                kinetic =    0.935621
    potential(screened) =   -1.402477
       potential(ionic) =   -1.927189

   izeta = 2
                 rmatch =    3.903467
              splitnorm =    0.150000
                 energy =   -0.359359
                kinetic =    1.518112
    potential(screened) =   -1.877471
       potential(ionic) =   -2.426559

POLgen: Perturbative polarization orbital with L=  1

POLgen: Polarization orbital for state 1s

   izeta = 1
                     rc =    5.204501
                 energy =    0.666830
                kinetic =    1.331346
    potential(screened) =   -0.664516
       potential(ionic) =   -1.147041
atom: Total number of Sankey-type orbitals:  5

atm_pop: Valence configuration (for local Pseudopot. screening):
 1s( 1.00)                                                            
Vna: chval, zval:    1.00000   1.00000

Vna:  Cut-off radius for the neutral-atom potential:   5.204501

atom: _________________________________________________________________________

<basis_specs>
===============================================================================
N.mpn                Z=   7    Mass=  14.010        Charge= 0.17977+309
Lmxo=1 Lmxkb= 3    BasisType=split      Semic=F
L=0  Nsemic=0  Cnfigmx=2
          n=1  nzeta=2  polorb=0
            splnorm:   0.15000    
               vcte:    0.0000    
               rinn:    0.0000    
               qcoe:    0.0000    
               qyuk:    0.0000    
               qwid:   0.10000E-01
                rcs:    0.0000      0.0000    
            lambdas:    1.0000      1.0000    
L=1  Nsemic=0  Cnfigmx=2
          n=1  nzeta=2  polorb=1
            splnorm:   0.15000    
               vcte:    0.0000    
               rinn:    0.0000    
               qcoe:    0.0000    
               qyuk:    0.0000    
               qwid:   0.10000E-01
                rcs:    0.0000      0.0000    
            lambdas:    1.0000      1.0000    
-------------------------------------------------------------------------------
L=0  Nkbl=1  erefs: 0.17977+309
L=1  Nkbl=1  erefs: 0.17977+309
L=2  Nkbl=1  erefs: 0.17977+309
L=3  Nkbl=1  erefs: 0.17977+309
===============================================================================
</basis_specs>

atom: Called for N.mpn                 (Z =   7)

read_vps: Pseudopotential generation method:
read_vps: ATM3      Troullier-Martins                       
Total valence charge:    5.00000

xc_check: Exchange-correlation functional:
xc_check: GGA Perdew, Burke & Ernzerhof 1996
V l=0 = -2*Zval/r beyond r=  1.3052
V l=1 = -2*Zval/r beyond r=  1.3216
V l=2 = -2*Zval/r beyond r=  1.9717
V l=3 = -2*Zval/r beyond r=  1.9472
All V_l potentials equal beyond r=  1.9472
This should be close to max(r_c) in ps generation
All pots = -2*Zval/r beyond r=  1.9717

VLOCAL1: 99.0% of the norm of Vloc inside     11.448 Ry
VLOCAL1: 99.9% of the norm of Vloc inside     26.090 Ry
atom: Maximum radius for 4*pi*r*r*local-pseudopot. charge    2.34888
atom: Maximum radius for r*vlocal+2*Zval:    2.04709
GHOST: No ghost state for L =  0
GHOST: No ghost state for L =  1
GHOST: No ghost state for L =  2
GHOST: No ghost state for L =  3

KBgen: Kleinman-Bylander projectors: 
   l= 0   rc=  2.152060   el= -1.364986   Ekb= -7.318647   kbcos= -0.169232
   l= 1   rc=  2.098916   el= -0.521175   Ekb= -8.563104   kbcos= -0.457104
   l= 2   rc=  2.348881   el=  0.001991   Ekb= -0.989485   kbcos= -0.015972
   l= 3   rc=  2.563701   el=  0.003093   Ekb= -0.388581   kbcos= -0.003046

KBgen: Total number of  Kleinman-Bylander projectors:   16
atom: -------------------------------------------------------------------------

atom: SANKEY-TYPE ORBITALS:
atom: Selected multiple-zeta basis: split     

SPLIT: Orbitals with angular momentum L= 0

SPLIT: Basis orbitals for state 2s

SPLIT: PAO cut-off radius determined from an
SPLIT: energy shift=  0.010000 Ry

   izeta = 1
                 lambda =    1.000000
                     rc =    3.970931
                 energy =   -1.355679
                kinetic =    1.218011
    potential(screened) =   -2.573690
       potential(ionic) =   -8.127009

   izeta = 2
                 rmatch =    2.905100
              splitnorm =    0.150000
                 energy =   -1.168878
                kinetic =    1.854824
    potential(screened) =   -3.023701
       potential(ionic) =   -8.968409

SPLIT: Orbitals with angular momentum L= 1

SPLIT: Basis orbitals for state 2p

SPLIT: PAO cut-off radius determined from an
SPLIT: energy shift=  0.010000 Ry

   izeta = 1
                 lambda =    1.000000
                     rc =    4.850185
                 energy =   -0.512144
                kinetic =    3.578489
    potential(screened) =   -4.090633
       potential(ionic) =   -9.466334

   izeta = 2
                 rmatch =    3.016124
              splitnorm =    0.150000
                 energy =   -0.329199
                kinetic =    5.257244
    potential(screened) =   -5.586444
       potential(ionic) =  -11.560762

POLgen: Perturbative polarization orbital with L=  2

POLgen: Polarization orbital for state 2p

   izeta = 1
                     rc =    4.850185
                 energy =    1.639138
                kinetic =    3.291807
    potential(screened) =   -1.652669
       potential(ionic) =   -5.984766
atom: Total number of Sankey-type orbitals: 13

atm_pop: Valence configuration (for local Pseudopot. screening):
 2s( 2.00)                                                            
 2p( 3.00)                                                            
Vna: chval, zval:    5.00000   5.00000

Vna:  Cut-off radius for the neutral-atom potential:   4.850185

atom: _________________________________________________________________________

prinput: Basis input ----------------------------------------------------------

PAO.BasisType split     

%block ChemicalSpeciesLabel
    1    1 H.mpn                   # Species index, atomic number, species label
    2    7 N.mpn                   # Species index, atomic number, species label
%endblock ChemicalSpeciesLabel

%block PAO.Basis                 # Define Basis set
H.mpn                 1                    # Species label, number of l-shells
 n=1   0   2 P   1                   # n, l, Nzeta, Polarization, NzetaPol
   5.205      3.903   
   1.000      1.000   
N.mpn                 2                    # Species label, number of l-shells
 n=2   0   2                         # n, l, Nzeta 
   3.971      2.905   
   1.000      1.000   
 n=2   1   2 P   1                   # n, l, Nzeta, Polarization, NzetaPol
   4.850      3.016   
   1.000      1.000   
%endblock PAO.Basis

prinput: ----------------------------------------------------------------------

Dumping basis to NetCDF file H.mpn.ion.nc
Dumping basis to NetCDF file N.mpn.ion.nc
coor:   Atomic-coordinates input format  =     Cartesian coordinates
coor:                                          (in Angstroms)

siesta: WARNING: XV file not found

siesta: Atomic coordinates (Bohr) and species
siesta:      9.44863   9.44863   8.68541  2        1
siesta:     11.24762   9.44863   9.44863  1        2
siesta:      8.54914  11.00573   9.44863  1        3
siesta:      8.54914   7.89154   9.44863  1        4

siesta: System type = molecule  

initatomlists: Number of atoms, orbitals, and projectors:      4    28    43

siesta: ******************** Simulation parameters ****************************
siesta:
siesta: The following are some of the parameters of the simulation.
siesta: A complete list of the parameters used, including default values,
siesta: can be found in file out.fdf
siesta:
redata: Spin configuration                          = none
redata: Number of spin components                   = 1
redata: Time-Reversal Symmetry                      = T
redata: Spin-spiral                                 = F
redata: Long output                                 =   T
redata: Number of Atomic Species                    =        2
redata: Charge density info will appear in .RHO file
redata: Write Mulliken Pop.                         = Atomic and Orbital charges
redata: Mesh Cutoff                                 =   200.0000 Ry
redata: Net charge of the system                    =     0.0000 |e|
redata: Min. number of SCF Iter                     =        0
redata: Max. number of SCF Iter                     =      100
redata: SCF mix quantity                            = Hamiltonian
redata: Mix DM or H after convergence               =   F
redata: Recompute H after scf cycle                 =   F
redata: Mix DM in first SCF step                    =   T
redata: Write Pulay info on disk                    =   F
redata: New DM Mixing Weight                        =     0.0500
redata: New DM Occupancy tolerance                  = 0.000000000001
redata: No kicks to SCF
redata: DM Mixing Weight for Kicks                  =     0.5000
redata: Require Harris convergence for SCF          =   F
redata: Harris energy tolerance for SCF             =     0.000100 eV
redata: Require DM convergence for SCF              =   T
redata: DM tolerance for SCF                        =     0.0001
redata: Require EDM convergence for SCF             =   F
redata: EDM tolerance for SCF                       =     0.001000 eV
redata: Require H convergence for SCF               =   T
redata: Hamiltonian tolerance for SCF               =     0.001000 eV
redata: Require (free) Energy convergence for SCF   =   F
redata: (free) Energy tolerance for SCF             =     0.000100 eV
redata: Using Saved Data (generic)                  =   T
redata: Use continuation files for DM               =   T
redata: Neglect nonoverlap interactions             =   F
redata: Method of Calculation                       = Diagonalization
redata: Divide and Conquer                          =   T
redata: Electronic Temperature                      =   299.9869 K
redata: Fix the spin of the system                  =   F
redata: Dynamics option                             = CG coord. optimization
redata: Variable cell                               =   F
redata: Use continuation files for CG               =   T
redata: Max atomic displ per move                   =     0.1058 Ang
redata: Maximum number of CG moves                  =      230
redata: Force tolerance                             =     0.0200 eV/Ang
mix.SCF: Pulay mixing                            = Pulay
mix.SCF:    Variant                              = stable
mix.SCF:    History steps                        = 5
mix.SCF:    Linear mixing weight                 =     0.050000
mix.SCF:    Mixing weight                        =     0.050000
mix.SCF:    SVD condition                        = 0.1000E-07
redata: Save all siesta data in one NC              =   F
redata: ***********************************************************************

%block SCF.Mixers
  Pulay
%endblock SCF.Mixers

%block SCF.Mixer.Pulay
  # Mixing method
  method pulay
  variant stable

  # Mixing options
  weight 0.0500
  weight.linear 0.0500
  history 5
%endblock SCF.Mixer.Pulay

DM_history_depth set to one: no extrapolation allowed by default for geometry relaxation
Size of DM history Fstack: 1
Total number of electrons:     8.000000
Total ionic charge:     8.000000

* ProcessorY, Blocksize:    2   3


* Orbital distribution balance (max,min):     6     3

 Kpoints in:            1 . Kpoints trimmed:            1

siesta: k-point coordinates (Bohr**-1) and weights:
siesta:    1    0.000000    0.000000    0.000000       1.000000

siesta: k-grid: Number of k-points =     1
siesta: k-grid: Cutoff (effective) =     5.000 Ang
siesta: k-grid: Supercell and displacements
siesta: k-grid:    1   0   0      0.000
siesta: k-grid:    0   1   0      0.000
siesta: k-grid:    0   0   1      0.000

siesta: Constraint (1): pos
  [ 1 ]

 Kpoints in:            1 . Kpoints trimmed:            1

transiesta: ts_k-point coordinates (Bohr**-1) and weights:
transiesta:    1    0.000000    0.000000    0.000000       1.000000

transiesta: k-grid: Number of Green function k-points =     1
transiesta: k-grid: Supercell and displacements
transiesta: k-grid:    1   0   0      0.000
transiesta: k-grid:    0   1   0      0.000
transiesta: k-grid:    0   0   1      0.000

ts: **************************************************************
ts: Save H and S matrices                           =    T
ts: Save DM and EDM matrices                        =    F
ts: Fix Hartree potential                           =    F
ts: Only save the overlap matrix S                  =    F
ts: **************************************************************

************************ Begin: TS CHECKS AND WARNINGS ************************
************************ End: TS CHECKS AND WARNINGS **************************


                     ====================================
                        Begin CG opt. move =      0
                     ====================================

outcoor: Atomic coordinates (Ang):                          
    5.00000000    5.00000000    4.59612000   2       1  N.mpn
    5.95198000    5.00000000    5.00000000   1       2  H.mpn
    4.52401000    5.82398000    5.00000000   1       3  H.mpn
    4.52401000    4.17602000    5.00000000   1       4  H.mpn

outcell: Unit cell vectors (Ang):
       10.000000    0.000000    0.000000
        0.000000   10.000000    0.000000
        0.000000    0.000000   10.000000

outcell: Cell vector modules (Ang)   :   10.000000   10.000000   10.000000
outcell: Cell angles (23,13,12) (deg):     90.0000     90.0000     90.0000
outcell: Cell volume (Ang**3)        :   1000.0000
<dSpData1D:S at geom step 0
  <sparsity:sparsity for geom step 0
    nrows_g=28 nrows=6 sparsity=.2143 nnzs=168, refcount: 7>
  <dData1D:(new from dSpData1D) n=168, refcount: 1>
refcount: 1>
new_DM -- step:     1
Initializing Density Matrix...

Attempting to read DM from file... Succeeded...
DM from file:
<dSpData2D:IO-DM: NH3.DM
  <sparsity:IO-DM: NH3.DM
    nrows_g=28 nrows=6 sparsity=.2143 nnzs=168, refcount: 1>
  <dData2D:(new from dSpData2D) n=168 m=1, refcount: 1>
refcount: 1>

Note: For starting DM, Qtot, Tr[D*S] =          8.00000000          7.19055971
No. of atoms with KB's overlaping orbs in proc 0. Max # of overlaps:       4      28
New grid distribution:   1
           1       1:   45    1:   23    1:   12
           2       1:   45    1:   23   13:   23
           3       1:   45    1:   23   24:   34
           4       1:   45    1:   23   35:   45
           5       1:   45   24:   45    1:   12
           6       1:   45   24:   45   13:   23
           7       1:   45   24:   45   24:   34
           8       1:   45   24:   45   35:   45

InitMesh: MESH =    90 x    90 x    90 =      729000
InitMesh: (bp) =    45 x    45 x    45 =       91125
InitMesh: Mesh cutoff (required, used) =   200.000   223.865 Ry
ExtMesh (bp) on 0 =    97 x    75 x    64 =      465600
New grid distribution:   2
           1       1:   23    1:   23    1:   22
           2      24:   45    1:   23    1:   22
           3       1:   23    1:   23   23:   45
           4      24:   45   24:   45    1:   22
           5      24:   45    1:   23   23:   45
           6       1:   23   24:   45    1:   22
           7       1:   23   24:   45   23:   45
           8      24:   45   24:   45   23:   45
New grid distribution:   3
           1      23:   45    1:   23    1:   23
           2       1:   22   24:   45    1:   23
           3      23:   45    1:   23   24:   45
           4       1:   22    1:   23   24:   45
           5      23:   45   24:   45    1:   23
           6       1:   22    1:   23    1:   23
           7      23:   45   24:   45   24:   45
           8       1:   22   24:   45   24:   45
Setting up quadratic distribution...
ExtMesh (bp) on 0 =    75 x    75 x    74 =      416250
PhiOnMesh: Number of (b)points on node 0 =                11638
PhiOnMesh: nlist on node 0 =                24354

stepf: Fermi-Dirac step function

siesta: Program's energy decomposition (eV):
siesta: Ebs     =       -95.789044
siesta: Eions   =       371.418070
siesta: Ena     =        30.377058
siesta: Ekin    =       239.950003
siesta: Enl     =      -113.548049
siesta: Eso     =         0.000000
siesta: Eldau   =         0.000000
siesta: DEna    =        -6.895795
siesta: DUscf   =         2.129606
siesta: DUext   =         0.000000
siesta: Exc     =       -97.928653
siesta: eta*DQ  =         0.000000
siesta: Emadel  =         0.000000
siesta: Emeta   =         0.000000
siesta: Emolmec =         0.000000
siesta: Ekinion =         0.000000
siesta: Eharris =      -313.665264
siesta: Etot    =      -317.333901
siesta: FreeEng =      -317.333901

        iscf     Eharris(eV)        E_KS(eV)     FreeEng(eV)     dDmax    Ef(eV) dHmax(eV)
   scf:    1     -313.665264     -317.333901     -317.333901  1.435660 -2.545109  4.889558
timer: Routine,Calls,Time,% = IterSCF        1       0.739  31.08
   scf:    2     -317.562434     -318.079327     -318.079327  0.198560 -4.226467  2.900838
   scf:    3     -318.891075     -318.574417     -318.574417  0.075136 -3.452486  0.535456
   scf:    4     -318.586969     -318.581435     -318.581435  0.006524 -3.494939  0.259566
   scf:    5     -318.580058     -318.582869     -318.582869  0.011711 -3.587918  0.251113
   scf:    6     -318.584383     -318.583991     -318.583991  0.003231 -3.506517  0.005425
   scf:    7     -318.583992     -318.583991     -318.583991  0.000079 -3.506101  0.004649
   scf:    8     -318.583992     -318.583992     -318.583992  0.000322 -3.507091  0.000050
   scf:    9     -318.583992     -318.583992     -318.583992  0.000003 -3.507071  0.000023

SCF Convergence by DM+H criterion
max |DM_out - DM_in|         :     0.0000034816
max |H_out - H_in|      (eV) :     0.0000229963
SCF cycle converged after 9 iterations

Using DM_out to compute the final energy and forces
No. of atoms with KB's overlaping orbs in proc 0. Max # of overlaps:       4      28

siesta: E_KS(eV) =             -318.5840

siesta: E_KS - E_eggbox =      -318.5840

siesta: Atomic forces (eV/Ang):
     1    0.011794   -0.000000   -0.014967
     2   -0.000719   -0.000000    0.005268
     3   -0.006174    0.014580    0.009840
     4   -0.006174   -0.014580    0.009840
----------------------------------------
   Tot   -0.001272    0.000000    0.009981
----------------------------------------
   Max    0.014967
   Res    0.009515    sqrt( Sum f_i^2 / 3N )
----------------------------------------
   Max    0.014580    constrained

Stress-tensor-Voigt (kbar):       -0.00       -0.03        0.02        0.00       -0.00        0.01
(Free)E + p*V (eV/cell)     -318.5806
Target enthalpy (eV/cell)     -318.5840

mulliken: Atomic and Orbital Populations:

Species: H.mpn               
Atom  Qatom  Qorb
               1s      1s      1Ppy    1Ppz    1Ppx    
   2  1.139   0.554   0.427   0.032   0.086   0.040
   3  1.140   0.554   0.428   0.038   0.086   0.034
   4  1.140   0.554   0.428   0.038   0.086   0.034

Species: N.mpn               
Atom  Qatom  Qorb
               2s      2s      2py     2pz     2px     2py     2pz     2px     
               2Pdxy   2Pdyz   2Pdz2   2Pdxz   2Pdx2-y2
   1  4.582   0.260   0.806   0.369   1.344   0.369   0.605   0.195   0.605
              0.003   0.011   0.002   0.011   0.003

mulliken: Qtot =        8.000

iocg: Reading CG continuation file

outcoor: Relaxed atomic coordinates (Ang):                  
    5.00000000    5.00000000    4.59612000   2       1  N.mpn
    5.95198000    5.00000000    5.00000000   1       2  H.mpn
    4.52401000    5.82398000    5.00000000   1       3  H.mpn
    4.52401000    4.17602000    5.00000000   1       4  H.mpn

siesta: Eigenvalues (eV):
  ik is    eps
   1  1 -20.72 -10.83 -10.83  -5.67   1.51   3.82   3.82   8.21   8.21  10.05
         11.13  11.14  15.01  19.28  19.28  21.69  21.78  26.58  29.05  29.05
         39.48  39.48  44.56  51.39  51.40  57.21  71.51  71.51
siesta: Fermi energy =      -3.507071 eV

siesta: Program's energy decomposition (eV):
siesta: Ebs     =       -96.084282
siesta: Eions   =       371.418070
siesta: Ena     =        30.377058
siesta: Ekin    =       239.625364
siesta: Enl     =      -112.527573
siesta: Eso     =         0.000000
siesta: Eldau   =         0.000000
siesta: DEna    =        -7.886537
siesta: DUscf   =         1.297083
siesta: DUext   =         0.000000
siesta: Exc     =       -98.051317
siesta: eta*DQ  =         0.000000
siesta: Emadel  =         0.000000
siesta: Emeta   =         0.000000
siesta: Emolmec =         0.000000
siesta: Ekinion =         0.000000
siesta: Eharris =      -318.583992
siesta: Etot    =      -318.583992
siesta: FreeEng =      -318.583992

siesta: Final energy (eV):
siesta:  Band Struct. =     -96.084282
siesta:       Kinetic =     239.625364
siesta:       Hartree =     358.073625
siesta:       Eldau   =       0.000000
siesta:       Eso     =       0.000000
siesta:    Ext. field =       0.000000
siesta:   Exch.-corr. =     -98.051317
siesta:  Ion-electron =    -924.745381
siesta:       Ion-ion =     106.513716
siesta:       Ekinion =       0.000000
siesta:         Total =    -318.583992
siesta:         Fermi =      -3.507071

siesta: Stress tensor (static) (eV/Ang**3):
siesta:    -0.000001    0.000000    0.000005
siesta:     0.000000   -0.000021   -0.000000
siesta:     0.000005   -0.000000    0.000012

siesta: Cell volume =       1000.000000 Ang**3

siesta: Pressure (static):
siesta:                Solid            Molecule  Units
siesta:           0.00000004         -0.00000010  Ry/Bohr**3
siesta:           0.00000335         -0.00000874  eV/Ang**3
siesta:           0.00536967         -0.01400222  kBar
(Free)E+ p_basis*V_orbitals  =        -317.524770
(Free)Eharris+ p_basis*V_orbitals  =        -317.524770

siesta: Electric dipole (a.u.)  =    0.000127    0.000000    0.492972
siesta: Electric dipole (Debye) =    0.000323    0.000000    1.253011
>> End of run:  22-MAR-2018  13:50:05
Job completed
