
BEGIN_INFO
   # Band-XCRYSDEN-Structure-File 
   # Generated by Inelastica.BandStruct
   # Launch as: xcrysden --bxsf example.bxsf
   #
   Fermi Energy: 0.0000
END_INFO
BEGIN_BLOCK_BANDGRID_3D
   What_is_this_text
   BEGIN_BANDGRID_3D_simple_example
     7
     20 20 20

     0.0 0.0 0.0

     -0.277008 0.277008 0.277008

     0.277008 -0.277008 0.277008

     0.277008 0.277008 -0.277008

   BAND:  0
-9.763462 -9.662826 -9.363123 -8.872125 -8.207694 -7.410212 -6.572452 -5.868167 -5.448413 -5.281450 -5.281450 -5.448413 -5.868167 -6.572452 -7.410212 -8.207694 -8.872125 -9.363123 -9.662826 -9.763462 
-9.662826 -9.629341 -9.396152 -8.968979 -8.361656 -7.605080 -6.770446 -6.006514 -5.494956 -5.261463 -5.212483 -5.313912 -5.630529 -6.239989 -7.049533 -7.870497 -8.582699 -9.132328 -9.495869 -9.662826 
-9.363123 -9.396152 -9.230689 -8.870882 -8.327841 -7.626089 -6.820907 -6.033991 -5.451504 -5.155437 -5.061302 -5.103891 -5.316988 -5.800459 -6.542050 -7.362407 -8.109225 -8.709662 -9.132328 -9.363123 
-8.872125 -8.968979 -8.870882 -8.580729 -8.108061 -7.473833 -6.723207 -5.954476 -5.335861 -4.985369 -4.848438 -4.840344 -4.960354 -5.299822 -5.925760 -6.709702 -7.470684 -8.109225 -8.582699 -8.872125 
-8.207694 -8.361656 -8.327841 -8.108061 -7.711522 -7.158707 -6.491211 -5.792934 -5.200725 -4.817953 -4.629873 -4.567135 -4.606479 -4.808284 -5.277701 -5.971328 -6.709702 -7.362406 -7.870497 -8.207694 
-7.410212 -7.605080 -7.626089 -7.473833 -7.158707 -6.704943 -6.158414 -5.597994 -5.119204 -4.763406 -4.526498 -4.382764 -4.332988 -4.420158 -4.732720 -5.277701 -5.925760 -6.542050 -7.049533 -7.410212 
-6.572452 -6.770446 -6.820907 -6.723207 -6.491211 -6.158414 -5.779422 -5.415226 -5.099408 -4.836073 -4.614834 -4.416676 -4.252180 -4.231807 -4.420158 -4.808284 -5.299822 -5.800459 -6.239989 -6.572452 
-5.868167 -6.006514 -6.033991 -5.954476 -5.792934 -5.597994 -5.415226 -5.251051 -5.096821 -4.943387 -4.779963 -4.599071 -4.401897 -4.252180 -4.332988 -4.606479 -4.960354 -5.316987 -5.630529 -5.868167 
-5.448413 -5.494956 -5.451504 -5.335861 -5.200725 -5.119204 -5.099408 -5.096821 -5.078510 -5.023846 -4.924192 -4.780155 -4.599071 -4.416676 -4.382764 -4.567136 -4.840344 -5.103891 -5.313912 -5.448413 
-5.281450 -5.261463 -5.155437 -4.985369 -4.817953 -4.763406 -4.836073 -4.943387 -5.023846 -5.052359 -5.018529 -4.924192 -4.779963 -4.614834 -4.526498 -4.629874 -4.848438 -5.061303 -5.212483 -5.281450 
-5.281450 -5.212483 -5.061303 -4.848438 -4.629874 -4.526498 -4.614834 -4.779963 -4.924192 -5.018529 -5.052359 -5.023846 -4.943387 -4.836073 -4.763406 -4.817953 -4.985369 -5.155437 -5.261463 -5.281450 
-5.448413 -5.313912 -5.103891 -4.840344 -4.567136 -4.382764 -4.416676 -4.599071 -4.780155 -4.924192 -5.023846 -5.078510 -5.096821 -5.099408 -5.119204 -5.200725 -5.335861 -5.451504 -5.494956 -5.448413 
-5.868167 -5.630529 -5.316987 -4.960354 -4.606479 -4.332988 -4.252180 -4.401897 -4.599071 -4.779963 -4.943387 -5.096821 -5.251051 -5.415226 -5.597994 -5.792934 -5.954476 -6.033991 -6.006514 -5.868167 
-6.572452 -6.239989 -5.800459 -5.299822 -4.808284 -4.420158 -4.231807 -4.252180 -4.416676 -4.614834 -4.836073 -5.099408 -5.415226 -5.779422 -6.158414 -6.491211 -6.723207 -6.820907 -6.770446 -6.572452 
-7.410212 -7.049533 -6.542050 -5.925760 -5.277701 -4.732720 -4.420158 -4.332988 -4.382764 -4.526498 -4.763406 -5.119204 -5.597994 -6.158414 -6.704943 -7.158707 -7.473833 -7.626089 -7.605080 -7.410212 
-8.207694 -7.870497 -7.362406 -6.709702 -5.971328 -5.277701 -4.808284 -4.606479 -4.567135 -4.629873 -4.817953 -5.200725 -5.792934 -6.491211 -7.158707 -7.711522 -8.108061 -8.327841 -8.361656 -8.207694 
-8.872125 -8.582699 -8.109225 -7.470684 -6.709702 -5.925760 -5.299822 -4.960354 -4.840344 -4.848438 -4.985369 -5.335861 -5.954476 -6.723207 -7.473833 -8.108061 -8.580729 -8.870882 -8.968979 -8.872125 
-9.363123 -9.132328 -8.709662 -8.109225 -7.362407 -6.542050 -5.800459 -5.316988 -5.103891 -5.061302 -5.155437 -5.451504 -6.033991 -6.820907 -7.626089 -8.327841 -8.870882 -9.230689 -9.396152 -9.363123 
-9.662826 -9.495869 -9.132328 -8.582699 -7.870497 -7.049533 -6.239989 -5.630529 -5.313912 -5.212483 -5.261463 -5.494956 -6.006514 -6.770446 -7.605080 -8.361656 -8.968979 -9.396152 -9.629341 -9.662826 
-9.763462 -9.662826 -9.363123 -8.872125 -8.207694 -7.410212 -6.572452 -5.868167 -5.448413 -5.281450 -5.281450 -5.448413 -5.868167 -6.572452 -7.410212 -8.207694 -8.872125 -9.363123 -9.662826 -9.763462 

-9.662826 -9.629341 -9.396152 -8.968979 -8.361656 -7.605080 -6.770446 -6.006514 -5.494956 -5.261463 -5.212483 -5.313912 -5.630529 -6.239990 -7.049533 -7.870497 -8.582699 -9.132328 -9.495869 -9.662826 
-9.629341 -9.662826 -9.495867 -9.132325 -8.582693 -7.870483 -7.049506 -6.239944 -5.630477 -5.313874 -5.212468 -5.261470 -5.494988 -6.006554 -6.770474 -7.605095 -8.361663 -8.968982 -9.396153 -9.629341 
-9.396152 -9.495867 -9.396151 -9.099325 -8.613493 -7.957059 -7.171344 -6.351090 -5.671869 -5.277754 -5.125102 -5.125125 -5.277823 -5.671963 -6.351163 -7.171384 -7.957078 -8.613502 -9.099329 -9.396152 
-8.968979 -9.132325 -9.099325 -8.870880 -8.453459 -7.862265 -7.130397 -6.332535 -5.619889 -5.161787 -4.961095 -4.918274 -4.999782 -5.270474 -5.824583 -6.591858 -7.384497 -8.077120 -8.613500 -8.968979 
-8.361656 -8.582693 -8.613493 -8.453459 -8.108059 -7.591183 -6.931978 -6.192475 -5.497548 -5.005257 -4.756704 -4.670447 -4.690866 -4.848851 -5.249811 -5.913339 -6.677469 -7.384493 -7.957071 -8.361656 
-7.605080 -7.870483 -7.957059 -7.862265 -7.591183 -7.158705 -6.595230 -5.959752 -5.357484 -4.897315 -4.608498 -4.457372 -4.406746 -4.469762 -4.724152 -5.237084 -5.913333 -6.591845 -7.171369 -7.605080 
-6.770446 -7.049506 -7.171344 -7.130397 -6.931978 -6.595230 -6.158412 -5.684327 -5.250716 -4.898325 -4.629044 -4.422969 -4.265160 -4.223327 -4.361650 -4.724172 -5.249811 -5.824565 -6.351136 -6.770446 
-6.006514 -6.239944 -6.351090 -6.332534 -6.192475 -5.959752 -5.684327 -5.415226 -5.171967 -4.956164 -4.761601 -4.574438 -4.382318 -4.198991 -4.223395 -4.469841 -4.848890 -5.270472 -5.671937 -6.006514 
-5.494956 -5.630476 -5.671868 -5.619889 -5.497548 -5.357484 -5.250716 -5.171967 -5.096825 -5.008716 -4.895424 -4.751625 -4.577159 -4.382337 -4.265255 -4.406871 -4.690949 -4.999817 -5.277820 -5.494956 
-5.261463 -5.313874 -5.277754 -5.161787 -5.005257 -4.897315 -4.898325 -4.956164 -5.008716 -5.023851 -4.986369 -4.893788 -4.751633 -4.574464 -4.423045 -4.457503 -4.670556 -4.918339 -5.125150 -5.261463 
-5.212483 -5.212468 -5.125102 -4.961095 -4.756704 -4.608499 -4.629044 -4.761601 -4.895424 -4.986369 -5.018536 -4.986373 -4.895435 -4.761629 -4.629113 -4.608619 -4.756824 -4.961179 -5.125150 -5.212483 
-5.313912 -5.261470 -5.125125 -4.918274 -4.670447 -4.457372 -4.422969 -4.574438 -4.751625 -4.893788 -4.986373 -5.023858 -5.008728 -4.956190 -4.898383 -4.897415 -5.005371 -5.161881 -5.277820 -5.313912 
-5.630529 -5.494988 -5.277823 -4.999782 -4.690866 -4.406746 -4.265160 -4.382318 -4.577159 -4.751633 -4.895435 -5.008728 -5.096839 -5.171990 -5.250757 -5.357549 -5.497627 -5.619967 -5.671937 -5.630529 
-6.239989 -6.006554 -5.671963 -5.270473 -4.848851 -4.469762 -4.223327 -4.198991 -4.382337 -4.574463 -4.761629 -4.956190 -5.171990 -5.415249 -5.684355 -5.959787 -6.192516 -6.332579 -6.351136 -6.239989 
-7.049533 -6.770474 -6.351162 -5.824583 -5.249811 -4.724152 -4.361650 -4.223395 -4.265255 -4.423045 -4.629112 -4.898383 -5.250757 -5.684355 -6.158433 -6.595249 -6.931998 -7.130419 -7.171369 -7.049533 
-7.870497 -7.605095 -7.171384 -6.591858 -5.913339 -5.237084 -4.724172 -4.469841 -4.406871 -4.457502 -4.608619 -4.897415 -5.357549 -5.959787 -6.595249 -7.158717 -7.591194 -7.862276 -7.957071 -7.870497 
-8.582699 -8.361663 -7.957078 -7.384497 -6.677469 -5.913333 -5.249811 -4.848890 -4.690949 -4.670556 -4.756824 -5.005371 -5.497627 -6.192516 -6.931998 -7.591194 -8.108067 -8.453465 -8.613500 -8.582699 
-9.132328 -8.968982 -8.613502 -8.077120 -7.384493 -6.591845 -5.824565 -5.270472 -4.999817 -4.918339 -4.961179 -5.161881 -5.619967 -6.332579 -7.130419 -7.862276 -8.453465 -8.870885 -9.099329 -9.132328 
-9.495869 -9.396153 -9.099329 -8.613500 -7.957071 -7.171369 -6.351137 -5.671937 -5.277820 -5.125150 -5.125150 -5.277820 -5.671937 -6.351137 -7.171369 -7.957071 -8.613500 -9.099329 -9.396153 -9.495869 
-9.662826 -9.629341 -9.396152 -8.968979 -8.361656 -7.605080 -6.770446 -6.006514 -5.494956 -5.261463 -5.212483 -5.313912 -5.630529 -6.239990 -7.049533 -7.870497 -8.582699 -9.132328 -9.495869 -9.662826 

-9.363123 -9.396152 -9.230689 -8.870882 -8.327841 -7.626089 -6.820907 -6.033991 -5.451504 -5.155437 -5.061302 -5.103891 -5.316988 -5.800459 -6.542050 -7.362407 -8.109225 -8.709662 -9.132328 -9.363123 
-9.396152 -9.495867 -9.396151 -9.099325 -8.613493 -7.957059 -7.171344 -6.351090 -5.671869 -5.277754 -5.125102 -5.125125 -5.277823 -5.671963 -6.351163 -7.171384 -7.957078 -8.613502 -9.099329 -9.396152 
-9.230689 -9.396151 -9.363121 -9.132324 -8.709653 -8.109208 -7.362371 -6.541980 -5.800345 -5.316867 -5.103806 -5.061260 -5.155446 -5.451564 -6.034058 -6.820949 -7.626109 -8.327849 -8.870885 -9.230689 
-8.870882 -9.099325 -9.132324 -8.968977 -8.613494 -8.077105 -7.384463 -6.591782 -5.824444 -5.270308 -4.999665 -4.918224 -4.961116 -5.161885 -5.620014 -6.332618 -7.130438 -7.862282 -8.453465 -8.870882 
-8.327841 -8.613493 -8.709653 -8.613494 -8.327841 -7.862269 -7.237616 -6.499056 -5.747313 -5.154501 -4.831405 -4.712394 -4.712441 -4.831552 -5.154701 -5.747455 -6.499123 -7.237641 -7.862276 -8.327841 
-7.626089 -7.957059 -8.109208 -8.077105 -7.862269 -7.473837 -6.931991 -6.277515 -5.595030 -5.024968 -4.665216 -4.493103 -4.442007 -4.495604 -4.701505 -5.144030 -5.794287 -6.499110 -7.130419 -7.626089 
-6.820907 -7.171344 -7.362371 -7.384463 -7.237616 -6.931991 -6.491226 -5.959781 -5.416454 -4.957863 -4.622252 -4.398538 -4.246700 -4.211711 -4.334125 -4.642058 -5.144028 -5.747429 -6.332579 -6.820907 
-6.033991 -6.351090 -6.541980 -6.591782 -6.499056 -6.277515 -5.959780 -5.598024 -5.250758 -4.950940 -4.706336 -4.507898 -4.329171 -4.154240 -4.139460 -4.334204 -4.701560 -5.154696 -5.619967 -6.033991 
-5.451504 -5.671868 -5.800345 -5.824444 -5.747313 -5.595030 -5.416454 -5.250758 -5.099450 -4.956204 -4.815794 -4.670452 -4.512727 -4.339263 -4.154262 -4.211934 -4.495771 -4.831626 -5.161881 -5.451504 
-5.155437 -5.277754 -5.316867 -5.270308 -5.154501 -5.024968 -4.957863 -4.950940 -4.956204 -4.943424 -4.895453 -4.806201 -4.676905 -4.512745 -4.329242 -4.246978 -4.442262 -4.712593 -4.961179 -5.155437 
-5.061302 -5.125102 -5.103806 -4.999665 -4.831405 -4.665216 -4.622252 -4.706336 -4.815794 -4.895453 -4.924222 -4.893811 -4.806208 -4.670479 -4.507978 -4.398750 -4.493378 -4.712593 -4.918339 -5.061302 
-5.103891 -5.125125 -5.061260 -4.918224 -4.712394 -4.493103 -4.398538 -4.507898 -4.670452 -4.806201 -4.893811 -4.924226 -4.895462 -4.815820 -4.706409 -4.622426 -4.665470 -4.831626 -4.999817 -5.103891 
-5.316987 -5.277823 -5.155446 -4.961116 -4.712441 -4.442007 -4.246700 -4.329171 -4.512727 -4.676905 -4.806208 -4.895462 -4.943434 -4.956223 -4.950991 -4.957980 -5.025153 -5.154696 -5.270472 -5.316987 
-5.800459 -5.671963 -5.451564 -5.161885 -4.831552 -4.495604 -4.211712 -4.154240 -4.339263 -4.512745 -4.670479 -4.815820 -4.956223 -5.099467 -5.250790 -5.416517 -5.595126 -5.747429 -5.824565 -5.800459 
-6.542050 -6.351162 -6.034058 -5.620014 -5.154701 -4.701505 -4.334125 -4.139460 -4.154262 -4.329242 -4.507977 -4.706409 -4.950991 -5.250790 -5.598050 -5.959812 -6.277557 -6.499110 -6.591845 -6.542050 
-7.362406 -7.171384 -6.820949 -6.332618 -5.747455 -5.144030 -4.642058 -4.334204 -4.211934 -4.246978 -4.398750 -4.622426 -4.957980 -5.416517 -5.959812 -6.491247 -6.932012 -7.237641 -7.384492 -7.362406 
-8.109225 -7.957078 -7.626109 -7.130438 -6.499123 -5.794287 -5.144028 -4.701560 -4.495771 -4.442262 -4.493378 -4.665470 -5.025153 -5.595126 -6.277557 -6.932012 -7.473851 -7.862282 -8.077120 -8.109225 
-8.709662 -8.613502 -8.327849 -7.862282 -7.237641 -6.499110 -5.747429 -5.154696 -4.831626 -4.712593 -4.712593 -4.831626 -5.154696 -5.747429 -6.499110 -7.237641 -7.862282 -8.327849 -8.613502 -8.709662 
-9.132328 -9.099329 -8.870885 -8.453465 -7.862276 -7.130419 -6.332579 -5.619967 -5.161881 -4.961179 -4.918339 -4.999817 -5.270472 -5.824565 -6.591845 -7.384493 -8.077120 -8.613502 -8.968982 -9.132328 
-9.363123 -9.396152 -9.230689 -8.870882 -8.327841 -7.626089 -6.820907 -6.033991 -5.451504 -5.155437 -5.061302 -5.103891 -5.316988 -5.800459 -6.542050 -7.362407 -8.109225 -8.709662 -9.132328 -9.363123 

-8.872125 -8.968979 -8.870882 -8.580729 -8.108061 -7.473833 -6.723207 -5.954476 -5.335861 -4.985369 -4.848438 -4.840344 -4.960354 -5.299822 -5.925760 -6.709702 -7.470684 -8.109225 -8.582699 -8.872125 
-8.968979 -9.132325 -9.099325 -8.870880 -8.453459 -7.862265 -7.130397 -6.332535 -5.619889 -5.161787 -4.961095 -4.918274 -4.999782 -5.270474 -5.824583 -6.591858 -7.384497 -8.077120 -8.613500 -8.968979 
-8.870882 -9.099325 -9.132324 -8.968977 -8.613494 -8.077105 -7.384463 -6.591782 -5.824444 -5.270308 -4.999665 -4.918224 -4.961116 -5.161885 -5.620014 -6.332618 -7.130438 -7.862282 -8.453465 -8.870882 
-8.580729 -8.870880 -8.968977 -8.872122 -8.582695 -8.109214 -7.470658 -6.709640 -5.925626 -5.299612 -4.960146 -4.840190 -4.848354 -4.985379 -5.335946 -5.954557 -6.723251 -7.473851 -8.108067 -8.580729 
-8.108061 -8.453459 -8.613494 -8.582695 -8.361659 -7.957071 -7.384481 -6.677425 -5.913221 -5.249585 -4.848596 -4.690680 -4.670354 -4.756728 -5.005389 -5.497686 -6.192555 -6.932012 -7.591194 -8.108061 
-7.473833 -7.862265 -8.077105 -8.109214 -7.957071 -7.626105 -7.130432 -6.499100 -5.794212 -5.143832 -4.701217 -4.495379 -4.441913 -4.493164 -4.665409 -5.025172 -5.595147 -6.277557 -6.931998 -7.473833 
-6.723207 -7.130397 -7.384463 -7.470658 -7.384481 -7.130432 -6.723251 -6.192555 -5.595121 -5.034545 -4.613169 -4.357902 -4.220245 -4.220427 -4.358189 -4.613413 -5.034655 -5.595126 -6.192516 -6.723207 
-5.954476 -6.332534 -6.591782 -6.709640 -6.677425 -6.499100 -6.192555 -5.793032 -5.357628 -4.957993 -4.638101 -4.413281 -4.256473 -4.151148 -4.181180 -4.324205 -4.613424 -5.025153 -5.497627 -5.954476 
-5.335861 -5.619889 -5.824444 -5.925626 -5.913221 -5.794212 -5.595121 -5.357628 -5.119351 -4.898488 -4.706440 -4.548585 -4.415490 -4.295306 -4.200191 -4.181176 -4.358282 -4.665470 -5.005371 -5.335861 
-4.985369 -5.161787 -5.270308 -5.299612 -5.249585 -5.143832 -5.034545 -4.957993 -4.898488 -4.836210 -4.761715 -4.670509 -4.561786 -4.435470 -4.295325 -4.151159 -4.220740 -4.493378 -4.756824 -4.985369 
-4.848438 -4.961095 -4.999665 -4.960146 -4.848596 -4.701217 -4.613169 -4.638101 -4.706440 -4.761715 -4.780055 -4.751697 -4.676942 -4.561798 -4.415534 -4.256618 -4.220741 -4.442262 -4.670556 -4.848438 
-4.840344 -4.918274 -4.918224 -4.840190 -4.690680 -4.495379 -4.357902 -4.413281 -4.548585 -4.670509 -4.751697 -4.780228 -4.751698 -4.670519 -4.548631 -4.413435 -4.358283 -4.495772 -4.690949 -4.840344 
-4.960354 -4.999782 -4.961116 -4.848354 -4.670354 -4.441913 -4.220245 -4.256473 -4.415490 -4.561786 -4.676942 -4.751698 -4.780049 -4.761705 -4.706450 -4.638193 -4.613424 -4.701560 -4.848890 -4.960354 
-5.299822 -5.270473 -5.161885 -4.985379 -4.756728 -4.493163 -4.220427 -4.151148 -4.295306 -4.435470 -4.561798 -4.670519 -4.761705 -4.836176 -4.898453 -4.958007 -5.034655 -5.144028 -5.249811 -5.299822 
-5.925760 -5.824583 -5.620014 -5.335946 -5.005389 -4.665409 -4.358189 -4.181180 -4.200191 -4.295325 -4.415534 -4.548631 -4.706450 -4.898453 -5.119303 -5.357606 -5.595147 -5.794287 -5.913333 -5.925760 
-6.709702 -6.591858 -6.332618 -5.954556 -5.497686 -5.025172 -4.613413 -4.324205 -4.181176 -4.151159 -4.256618 -4.413435 -4.638193 -4.958007 -5.357606 -5.793011 -6.192555 -6.499123 -6.677469 -6.709702 
-7.470684 -7.384497 -7.130438 -6.723251 -6.192555 -5.595147 -5.034655 -4.613424 -4.358282 -4.220740 -4.220740 -4.358283 -4.613424 -5.034655 -5.595147 -6.192555 -6.723251 -7.130438 -7.384497 -7.470684 
-8.109225 -8.077120 -7.862282 -7.473851 -6.932012 -6.277557 -5.595126 -5.025153 -4.665470 -4.493378 -4.442262 -4.495771 -4.701560 -5.144028 -5.794287 -6.499123 -7.130438 -7.626109 -7.957078 -8.109225 
-8.582699 -8.613500 -8.453465 -8.108067 -7.591194 -6.931998 -6.192516 -5.497627 -5.005371 -4.756824 -4.670556 -4.690949 -4.848890 -5.249811 -5.913333 -6.677469 -7.384497 -7.957078 -8.361663 -8.582699 
-8.872125 -8.968979 -8.870882 -8.580729 -8.108061 -7.473833 -6.723207 -5.954476 -5.335861 -4.985369 -4.848438 -4.840344 -4.960354 -5.299822 -5.925760 -6.709702 -7.470684 -8.109225 -8.582699 -8.872125 

-8.207694 -8.361656 -8.327841 -8.108061 -7.711522 -7.158707 -6.491211 -5.792934 -5.200725 -4.817953 -4.629873 -4.567135 -4.606479 -4.808284 -5.277701 -5.971328 -6.709702 -7.362406 -7.870497 -8.207694 
-8.361656 -8.582693 -8.613493 -8.453459 -8.108059 -7.591183 -6.931978 -6.192475 -5.497548 -5.005257 -4.756704 -4.670447 -4.690866 -4.848851 -5.249811 -5.913339 -6.677469 -7.384492 -7.957071 -8.361656 
-8.327841 -8.613493 -8.709653 -8.613494 -8.327841 -7.862269 -7.237616 -6.499056 -5.747313 -5.154501 -4.831405 -4.712394 -4.712441 -4.831552 -5.154701 -5.747455 -6.499123 -7.237641 -7.862276 -8.327841 
-8.108061 -8.453459 -8.613494 -8.582695 -8.361659 -7.957071 -7.384481 -6.677425 -5.913221 -5.249585 -4.848596 -4.690680 -4.670354 -4.756728 -5.005389 -5.497686 -6.192555 -6.932012 -7.591194 -8.108061 
-7.711522 -8.108059 -8.327841 -8.361659 -8.207701 -7.870505 -7.362411 -6.709686 -5.971254 -5.277502 -4.807960 -4.606161 -4.566902 -4.629775 -4.817999 -5.200830 -5.793011 -6.491247 -7.158717 -7.711522 
-7.158707 -7.591183 -7.862269 -7.957071 -7.870505 -7.605111 -7.171406 -6.591876 -5.913327 -5.236970 -4.723861 -4.469409 -4.406489 -4.457296 -4.608596 -4.897476 -5.357606 -5.959812 -6.595249 -7.158707 
-6.491211 -6.931978 -7.237616 -7.384481 -7.362411 -7.171406 -6.820990 -6.332678 -5.747520 -5.144050 -4.641903 -4.333771 -4.211364 -4.246712 -4.398727 -4.622460 -4.958007 -5.416517 -5.959787 -6.491211 
-5.792934 -6.192475 -6.499056 -6.677425 -6.709686 -6.591876 -6.332678 -5.954663 -5.497838 -5.025334 -4.613483 -4.324049 -4.180940 -4.151159 -4.256675 -4.413465 -4.638193 -4.957980 -5.357549 -5.792934 
-5.200725 -5.497548 -5.747313 -5.913221 -5.971254 -5.913327 -5.747520 -5.497837 -5.201057 -4.897730 -4.622647 -4.413483 -4.298035 -4.248430 -4.248472 -4.298103 -4.413435 -4.622426 -4.897415 -5.200725 
-4.817953 -5.005257 -5.154501 -5.249585 -5.277502 -5.236969 -5.144050 -5.025334 -4.897730 -4.763788 -4.629399 -4.508123 -4.415556 -4.345626 -4.288219 -4.248464 -4.256617 -4.398750 -4.608619 -4.817953 
-4.629873 -4.756704 -4.831404 -4.848596 -4.807960 -4.723861 -4.641903 -4.613483 -4.622647 -4.629399 -4.615106 -4.574637 -4.512829 -4.435501 -4.345642 -4.248464 -4.151159 -4.246978 -4.457502 -4.629873 
-4.567135 -4.670447 -4.712394 -4.690680 -4.606161 -4.469409 -4.333771 -4.324049 -4.413483 -4.508123 -4.574637 -4.599231 -4.577285 -4.512826 -4.415572 -4.298103 -4.181176 -4.211935 -4.406871 -4.567135 
-4.606479 -4.690866 -4.712441 -4.670354 -4.566902 -4.406489 -4.211364 -4.180941 -4.298035 -4.415556 -4.512829 -4.577285 -4.599211 -4.574590 -4.508063 -4.413465 -4.324205 -4.334204 -4.469841 -4.606479 
-4.808284 -4.848851 -4.831552 -4.756728 -4.629775 -4.457296 -4.246712 -4.151159 -4.248430 -4.345626 -4.435501 -4.512826 -4.574590 -4.614982 -4.629211 -4.622460 -4.613413 -4.642059 -4.724172 -4.808284 
-5.277701 -5.249811 -5.154701 -5.005389 -4.817999 -4.608595 -4.398726 -4.256674 -4.248472 -4.288219 -4.345642 -4.415572 -4.508063 -4.629211 -4.763523 -4.897475 -5.025172 -5.144030 -5.237084 -5.277701 
-5.971328 -5.913339 -5.747455 -5.497686 -5.200830 -4.897475 -4.622460 -4.413465 -4.298103 -4.248464 -4.248464 -4.298103 -4.413465 -4.622460 -4.897475 -5.200830 -5.497686 -5.747455 -5.913339 -5.971328 
-6.709702 -6.677469 -6.499123 -6.192555 -5.793011 -5.357606 -4.958007 -4.638193 -4.413435 -4.256618 -4.151159 -4.181176 -4.324205 -4.613413 -5.025172 -5.497686 -5.954556 -6.332618 -6.591857 -6.709702 
-7.362406 -7.384492 -7.237641 -6.932012 -6.491247 -5.959812 -5.416517 -4.957980 -4.622426 -4.398750 -4.246978 -4.211934 -4.334204 -4.642058 -5.144030 -5.747455 -6.332618 -6.820949 -7.171384 -7.362406 
-7.870497 -7.957071 -7.862276 -7.591194 -7.158717 -6.595249 -5.959787 -5.357549 -4.897415 -4.608619 -4.457502 -4.406871 -4.469841 -4.724172 -5.237084 -5.913339 -6.591858 -7.171384 -7.605095 -7.870497 
-8.207694 -8.361656 -8.327841 -8.108061 -7.711522 -7.158707 -6.491211 -5.792934 -5.200725 -4.817953 -4.629873 -4.567135 -4.606479 -4.808284 -5.277701 -5.971328 -6.709702 -7.362406 -7.870497 -8.207694 

-7.410212 -7.605080 -7.626089 -7.473832 -7.158707 -6.704943 -6.158414 -5.597994 -5.119204 -4.763406 -4.526498 -4.382764 -4.332988 -4.420157 -4.732720 -5.277701 -5.925760 -6.542050 -7.049533 -7.410212 
-7.605080 -7.870483 -7.957059 -7.862265 -7.591183 -7.158705 -6.595230 -5.959752 -5.357484 -4.897315 -4.608498 -4.457372 -4.406746 -4.469762 -4.724152 -5.237084 -5.913333 -6.591845 -7.171369 -7.605080 
-7.626089 -7.957059 -8.109208 -8.077105 -7.862269 -7.473837 -6.931991 -6.277515 -5.595030 -5.024968 -4.665216 -4.493103 -4.442007 -4.495604 -4.701505 -5.144030 -5.794287 -6.499110 -7.130419 -7.626089 
-7.473833 -7.862265 -8.077105 -8.109214 -7.957071 -7.626105 -7.130432 -6.499100 -5.794212 -5.143832 -4.701217 -4.495379 -4.441913 -4.493164 -4.665409 -5.025172 -5.595147 -6.277557 -6.931998 -7.473833 
-7.158707 -7.591183 -7.862269 -7.957071 -7.870505 -7.605111 -7.171406 -6.591876 -5.913327 -5.236970 -4.723861 -4.469409 -4.406489 -4.457296 -4.608596 -4.897476 -5.357606 -5.959812 -6.595249 -7.158707 
-6.704943 -7.158705 -7.473837 -7.626105 -7.605111 -7.410260 -7.049599 -6.542131 -5.925842 -5.277733 -4.732580 -4.419799 -4.332629 -4.382614 -4.526547 -4.763523 -5.119303 -5.598050 -6.158433 -6.704943 
-6.158414 -6.595230 -6.931991 -7.130432 -7.171406 -7.049599 -6.770575 -6.351305 -5.824770 -5.250023 -4.724290 -4.361500 -4.223015 -4.265122 -4.423122 -4.629212 -4.898453 -5.250790 -5.684355 -6.158414 
-5.597994 -5.959752 -6.277515 -6.499100 -6.591876 -6.542131 -6.351305 -6.034276 -5.620322 -5.155099 -4.701937 -4.334368 -4.139231 -4.154351 -4.329364 -4.508064 -4.706450 -4.950991 -5.250757 -5.597994 
-5.119204 -5.357484 -5.595030 -5.794212 -5.913327 -5.925842 -5.824770 -5.620322 -5.336386 -5.005951 -4.666037 -4.358692 -4.181164 -4.200148 -4.295359 -4.415572 -4.548631 -4.706409 -4.898383 -5.119204 
-4.763406 -4.897315 -5.024968 -5.143832 -5.236969 -5.277733 -5.250023 -5.155099 -5.005951 -4.818669 -4.609284 -4.399256 -4.256744 -4.248442 -4.288215 -4.345642 -4.415534 -4.507977 -4.629112 -4.763406 
-4.526498 -4.608498 -4.665216 -4.701217 -4.723861 -4.732580 -4.724290 -4.701937 -4.666037 -4.609284 -4.527170 -4.423544 -4.329461 -4.295349 -4.288215 -4.288219 -4.295325 -4.329241 -4.423045 -4.526498 
-4.382764 -4.457372 -4.493103 -4.495379 -4.469409 -4.419799 -4.361500 -4.334368 -4.358692 -4.399256 -4.423544 -4.417097 -4.382595 -4.339379 -4.295359 -4.248472 -4.200191 -4.154261 -4.265255 -4.382764 
-4.332988 -4.406746 -4.442007 -4.441913 -4.406489 -4.332629 -4.223015 -4.139231 -4.181164 -4.256744 -4.329461 -4.382596 -4.402140 -4.382527 -4.329364 -4.256675 -4.181181 -4.139461 -4.223395 -4.332988 
-4.420158 -4.469762 -4.495604 -4.493163 -4.457296 -4.382613 -4.265122 -4.154351 -4.200148 -4.248442 -4.295349 -4.339379 -4.382527 -4.416850 -4.423121 -4.398726 -4.358189 -4.334125 -4.361651 -4.420158 
-4.732720 -4.724152 -4.701505 -4.665409 -4.608595 -4.526547 -4.423121 -4.329364 -4.295359 -4.288215 -4.288215 -4.295359 -4.329364 -4.423121 -4.526546 -4.608595 -4.665409 -4.701505 -4.724152 -4.732720 
-5.277701 -5.237084 -5.144030 -5.025172 -4.897475 -4.763523 -4.629211 -4.508063 -4.415572 -4.345642 -4.288219 -4.248472 -4.256674 -4.398726 -4.608595 -4.817999 -5.005389 -5.154701 -5.249811 -5.277701 
-5.925760 -5.913333 -5.794287 -5.595147 -5.357606 -5.119303 -4.898453 -4.706450 -4.548631 -4.415534 -4.295325 -4.200191 -4.181180 -4.358189 -4.665409 -5.005389 -5.335946 -5.620014 -5.824583 -5.925760 
-6.542050 -6.591845 -6.499110 -6.277557 -5.959812 -5.598050 -5.250790 -4.950991 -4.706409 -4.507977 -4.329242 -4.154262 -4.139460 -4.334125 -4.701505 -5.154701 -5.620014 -6.034058 -6.351162 -6.542050 
-7.049533 -7.171369 -7.130419 -6.931998 -6.595249 -6.158433 -5.684355 -5.250757 -4.898383 -4.629112 -4.423045 -4.265255 -4.223395 -4.361650 -4.724152 -5.249811 -5.824583 -6.351162 -6.770474 -7.049533 
-7.410212 -7.605080 -7.626089 -7.473832 -7.158707 -6.704943 -6.158414 -5.597994 -5.119204 -4.763406 -4.526498 -4.382764 -4.332988 -4.420157 -4.732720 -5.277701 -5.925760 -6.542050 -7.049533 -7.410212 

-6.572452 -6.770446 -6.820907 -6.723207 -6.491211 -6.158414 -5.779422 -5.415226 -5.099408 -4.836073 -4.614834 -4.416676 -4.252180 -4.231807 -4.420157 -4.808284 -5.299822 -5.800459 -6.239989 -6.572452 
-6.770446 -7.049506 -7.171344 -7.130397 -6.931978 -6.595230 -6.158412 -5.684327 -5.250716 -4.898325 -4.629043 -4.422969 -4.265160 -4.223327 -4.361650 -4.724172 -5.249811 -5.824565 -6.351136 -6.770446 
-6.820907 -7.171344 -7.362371 -7.384463 -7.237616 -6.931991 -6.491226 -5.959780 -5.416454 -4.957863 -4.622252 -4.398538 -4.246700 -4.211711 -4.334125 -4.642058 -5.144028 -5.747429 -6.332579 -6.820907 
-6.723207 -7.130397 -7.384463 -7.470658 -7.384481 -7.130432 -6.723251 -6.192555 -5.595121 -5.034545 -4.613169 -4.357902 -4.220245 -4.220427 -4.358189 -4.613413 -5.034655 -5.595126 -6.192516 -6.723207 
-6.491211 -6.931978 -7.237616 -7.384481 -7.362411 -7.171406 -6.820990 -6.332678 -5.747520 -5.144050 -4.641903 -4.333771 -4.211364 -4.246712 -4.398727 -4.622460 -4.958007 -5.416517 -5.959787 -6.491211 
-6.158414 -6.595230 -6.931991 -7.130432 -7.171406 -7.049599 -6.770575 -6.351305 -5.824770 -5.250023 -4.724290 -4.361500 -4.223015 -4.265122 -4.423122 -4.629212 -4.898453 -5.250790 -5.684355 -6.158414 
-5.779422 -6.158412 -6.491226 -6.723251 -6.820990 -6.770575 -6.572636 -6.240241 -5.800789 -5.300229 -4.808713 -4.420424 -4.231754 -4.252224 -4.416850 -4.614982 -4.836176 -5.099467 -5.415249 -5.779422 
-5.415226 -5.684327 -5.959781 -6.192555 -6.332678 -6.351305 -6.240241 -6.006903 -5.672429 -5.271065 -4.849546 -4.470440 -4.223694 -4.199267 -4.382527 -4.574590 -4.761705 -4.956223 -5.171990 -5.415226 
-5.099408 -5.250716 -5.416454 -5.595121 -5.747520 -5.824770 -5.800789 -5.672429 -5.452176 -5.162649 -4.832452 -4.496584 -4.212549 -4.154358 -4.339379 -4.512826 -4.670519 -4.815820 -4.956190 -5.099408 
-4.836073 -4.898325 -4.957863 -5.034545 -5.144050 -5.250023 -5.300229 -5.271065 -5.162649 -4.986296 -4.757771 -4.494291 -4.221526 -4.151146 -4.295349 -4.435501 -4.561798 -4.670479 -4.761629 -4.836073 
-4.614834 -4.629043 -4.622252 -4.613169 -4.641903 -4.724290 -4.808713 -4.849546 -4.832452 -4.757771 -4.630894 -4.458423 -4.247752 -4.151146 -4.248442 -4.345626 -4.435470 -4.512745 -4.574463 -4.614834 
-4.416676 -4.422968 -4.398538 -4.357902 -4.333771 -4.361500 -4.420423 -4.470440 -4.496584 -4.494291 -4.458423 -4.383618 -4.265895 -4.154358 -4.200148 -4.248430 -4.295306 -4.339263 -4.382337 -4.416676 
-4.252180 -4.265160 -4.246700 -4.220245 -4.211364 -4.223015 -4.231754 -4.223694 -4.212549 -4.221526 -4.247752 -4.265895 -4.252633 -4.199267 -4.154351 -4.151159 -4.151148 -4.154240 -4.198991 -4.252180 
-4.231807 -4.223327 -4.211712 -4.220427 -4.246712 -4.265122 -4.252224 -4.199267 -4.154358 -4.151146 -4.151146 -4.154358 -4.199267 -4.252224 -4.265122 -4.246712 -4.220427 -4.211712 -4.223327 -4.231807 
-4.420158 -4.361651 -4.334125 -4.358189 -4.398726 -4.423121 -4.416850 -4.382527 -4.339379 -4.295349 -4.248442 -4.200148 -4.154351 -4.265122 -4.382613 -4.457296 -4.493163 -4.495604 -4.469762 -4.420158 
-4.808284 -4.724172 -4.642059 -4.613413 -4.622460 -4.629211 -4.614982 -4.574590 -4.512826 -4.435501 -4.345626 -4.248430 -4.151159 -4.246712 -4.457296 -4.629775 -4.756728 -4.831552 -4.848851 -4.808284 
-5.299822 -5.249811 -5.144028 -5.034655 -4.958007 -4.898453 -4.836176 -4.761705 -4.670519 -4.561798 -4.435470 -4.295306 -4.151148 -4.220427 -4.493163 -4.756728 -4.985379 -5.161885 -5.270473 -5.299822 
-5.800459 -5.824565 -5.747429 -5.595126 -5.416517 -5.250790 -5.099467 -4.956223 -4.815820 -4.670479 -4.512745 -4.339263 -4.154240 -4.211712 -4.495604 -4.831552 -5.161885 -5.451564 -5.671963 -5.800459 
-6.239989 -6.351136 -6.332579 -6.192516 -5.959787 -5.684355 -5.415249 -5.171990 -4.956190 -4.761629 -4.574463 -4.382337 -4.198991 -4.223327 -4.469762 -4.848851 -5.270473 -5.671963 -6.006553 -6.239989 
-6.572452 -6.770446 -6.820907 -6.723207 -6.491211 -6.158414 -5.779422 -5.415226 -5.099408 -4.836073 -4.614834 -4.416676 -4.252180 -4.231807 -4.420157 -4.808284 -5.299822 -5.800459 -6.239989 -6.572452 

-5.868167 -6.006514 -6.033991 -5.954476 -5.792934 -5.597994 -5.415226 -5.251051 -5.096821 -4.943387 -4.779963 -4.599071 -4.401897 -4.252180 -4.332988 -4.606479 -4.960354 -5.316987 -5.630529 -5.868167 
-6.006514 -6.239944 -6.351090 -6.332534 -6.192475 -5.959752 -5.684327 -5.415226 -5.171967 -4.956163 -4.761601 -4.574438 -4.382318 -4.198991 -4.223395 -4.469841 -4.848890 -5.270472 -5.671937 -6.006514 
-6.033991 -6.351090 -6.541980 -6.591782 -6.499056 -6.277515 -5.959780 -5.598024 -5.250758 -4.950940 -4.706336 -4.507898 -4.329171 -4.154240 -4.139460 -4.334204 -4.701560 -5.154696 -5.619967 -6.033991 
-5.954476 -6.332534 -6.591782 -6.709640 -6.677425 -6.499100 -6.192555 -5.793032 -5.357628 -4.957993 -4.638101 -4.413281 -4.256473 -4.151148 -4.181181 -4.324205 -4.613424 -5.025153 -5.497627 -5.954476 
-5.792934 -6.192475 -6.499056 -6.677425 -6.709686 -6.591876 -6.332678 -5.954663 -5.497838 -5.025335 -4.613483 -4.324049 -4.180940 -4.151159 -4.256675 -4.413465 -4.638193 -4.957980 -5.357549 -5.792934 
-5.597994 -5.959752 -6.277515 -6.499100 -6.591876 -6.542131 -6.351305 -6.034276 -5.620322 -5.155099 -4.701937 -4.334368 -4.139231 -4.154351 -4.329364 -4.508064 -4.706450 -4.950991 -5.250757 -5.597994 
-5.415226 -5.684327 -5.959781 -6.192555 -6.332678 -6.351305 -6.240241 -6.006903 -5.672429 -5.271065 -4.849546 -4.470440 -4.223694 -4.199267 -4.382527 -4.574590 -4.761705 -4.956223 -5.171990 -5.415226 