Siesta Version:                                        siesta-trunk-301
Architecture  : x86_64-unknown-linux-gnu--Intel
Compiler flags: mpif90 -O2 -mtune=core2 -march=core2 -xT -I/bionano/netcdf-intel-10.1//include -mp1
PARALLEL version
TRANSIESTA support
NetCDF support

* Running in serial mode with MPI
>> Start of run:  13-SEP-2010  11:05:38

                           ***********************       
                           *  WELCOME TO SIESTA  *       
                           ***********************       

reinit: Reading from standard input
************************** Dump of input data file ****************************
MD.TypeOfRun  CG
TS.FCwriteHS True
TS.SaveHS    True
SystemName          LiBCC
SystemLabel         LiBCC
SpinPolarized       F
%block kgrid_Monkhorst_Pack
  11 0 0   0
  0 11 0   0
  0 0 11   0
%endblock kgrid_Monkhorst_Pack
%block ChemicalSpeciesLabel
 1   29   Cu
%endblock ChemicalSpeciesLabel
WriteCoorStep              T     # Default value
WriteCoorInitial           T     # Default value
%include STRUCT.fdf
%include Default.fdf
************************** End of input data file *****************************

reinit: -----------------------------------------------------------------------
reinit: System Name: LiBCC
reinit: -----------------------------------------------------------------------
reinit: System Label: LiBCC                                                       
reinit: -----------------------------------------------------------------------

initatom: Reading input for the pseudopotentials and atomic orbitals ----------
 Species number:            1  Label: Cu Atomic number:          29
Ground state valence configuration:   4s01  3d10
Reading pseudopotential information in formatted form from Cu.psf

Valence configuration for pseudopotential generation:
4s( 1.00) rc: 2.77
4p( 0.00) rc: 2.39
3d(10.00) rc: 2.16
4f( 0.00) rc: 2.16
For Cu, standard SIESTA heuristics set lmxkb to 3
 (one more than the basis l, including polarization orbitals).
Use PS.lmax or PS.KBprojectors blocks to override.

<basis_specs>
===============================================================================
Cu                   Z=  29    Mass=  63.550        Charge= 0.17977+309
Lmxo=2 Lmxkb=3     BasisType=split      Semic=F
L=0  Nsemic=0  Cnfigmx=4
          n=1  nzeta=2  polorb=1
            splnorm:   0.15000    
               vcte:    0.0000    
               rinn:    0.0000    
                rcs:    0.0000      0.0000    
            lambdas:    1.0000      1.0000    
L=1  Nsemic=0  Cnfigmx=4
L=2  Nsemic=0  Cnfigmx=3
          n=1  nzeta=2  polorb=0
            splnorm:   0.15000    
               vcte:    0.0000    
               rinn:    0.0000    
                rcs:    0.0000      0.0000    
            lambdas:    1.0000      1.0000    
-------------------------------------------------------------------------------
L=0  Nkbl=1  erefs: 0.17977+309
L=1  Nkbl=1  erefs: 0.17977+309
L=2  Nkbl=1  erefs: 0.17977+309
L=3  Nkbl=1  erefs: 0.17977+309
===============================================================================
</basis_specs>

atom: Called for Cu                    (Z =  29)

read_vps: Pseudopotential generation method:
read_vps: ATM 3.2.2 Troullier-Martins                       
Total valence charge:   11.00000

xc_check: Exchange-correlation functional:
xc_check: GGA Perdew, Burke & Ernzerhof 1996
V l=0 = -2*Zval/r beyond r=  2.7052
V l=1 = -2*Zval/r beyond r=  2.3284
V l=2 = -2*Zval/r beyond r=  2.1068
V l=3 = -2*Zval/r beyond r=  2.1068
All V_l potentials equal beyond r=  2.7052
This should be close to max(r_c) in ps generation
All pots = -2*Zval/r beyond r=  2.7052

VLOCAL1: 99.0% of the norm of Vloc inside      5.932 Ry
VLOCAL1: 99.9% of the norm of Vloc inside     13.518 Ry
atom: Maximum radius for 4*pi*r*r*local-pseudopot. charge    3.26310
atom: Maximum radius for r*vlocal+2*Zval:    2.87967
GHOST: No ghost state for L =  0
GHOST: No ghost state for L =  1
GHOST: No ghost state for L =  2
GHOST: No ghost state for L =  3

KBgen: Kleinman-Bylander projectors: 
   l= 0   rc=  3.065395   el= -0.338872   Ekb=  1.903878   kbcos=  0.167959
   l= 1   rc=  3.142998   el= -0.051317   Ekb=  0.525426   kbcos=  0.145051
   l= 2   rc=  2.773676   el= -0.370418   Ekb=-17.344963   kbcos= -0.748506
   l= 3   rc=  3.182533   el=  0.003069   Ekb= -1.686143   kbcos= -0.009398

KBgen: Total number of  Kleinman-Bylander projectors:   16
atom: -------------------------------------------------------------------------

atom: SANKEY-TYPE ORBITALS:
atom: Selected multiple-zeta basis: split     

SPLIT: Orbitals with angular momentum L= 0

SPLIT: Basis orbitals for state 4s

SPLIT: PAO cut-off radius determined from an
SPLIT: energy shift=  0.010000 Ry

   izeta = 1
                 lambda =    1.000000
                     rc =    7.082961
                 energy =   -0.329881
                kinetic =    0.293952
    potential(screened) =   -0.623833
       potential(ionic) =   -8.844752

   izeta = 2
                 rmatch =    6.096350
              splitnorm =    0.150000
                 energy =   -0.284726
                kinetic =    0.440027
    potential(screened) =   -0.724752
       potential(ionic) =   -9.711311

SPLIT: Orbitals with angular momentum L= 2

SPLIT: Basis orbitals for state 3d

SPLIT: PAO cut-off radius determined from an
SPLIT: energy shift=  0.010000 Ry

   izeta = 1
                 lambda =    1.000000
                     rc =    4.086477
                 energy =   -0.361065
                kinetic =   10.350081
    potential(screened) =  -10.711146
       potential(ionic) =  -25.902167

   izeta = 2
                 rmatch =    2.004033
              splitnorm =    0.150000
                 energy =    0.103966
                kinetic =   14.040031
    potential(screened) =  -13.936066
       potential(ionic) =  -30.420017

POLgen: Perturbative polarization orbital with L=  1

POLgen: Polarization orbital for state 4s

   izeta = 1
                     rc =    7.082961
                 energy =    0.021079
                kinetic =    0.591438
    potential(screened) =   -0.570360
       potential(ionic) =   -7.865762
atom: Total number of Sankey-type orbitals: 15

atm_pop: Valence configuration (for local Pseudopot. screening):
 4s( 1.00)                                                            
 4p( 0.00)                                                            
 3d(10.00)                                                            
Vna: chval, zval:   11.00000  11.00000

Vna:  Cut-off radius for the neutral-atom potential:   7.082961

atom: _________________________________________________________________________

prinput: Basis input ----------------------------------------------------------

PAO.BasisType split     

%block ChemicalSpeciesLabel
    1   29 Cu                      # Species index, atomic number, species label
%endblock ChemicalSpeciesLabel

%block PAO.Basis                 # Define Basis set
Cu                    2                    # Species label, number of l-shells
 n=4   0   2 P   1                   # n, l, Nzeta, Polarization, NzetaPol
   7.083      6.096   
   1.000      1.000   
 n=3   2   2                         # n, l, Nzeta 
   4.086      2.004   
   1.000      1.000   
%endblock PAO.Basis

prinput: ----------------------------------------------------------------------

Dumping basis to NetCDF file Cu.ion.nc
coor:   Atomic-coordinates input format  =     Cartesian coordinates
coor:                                          (in Angstroms)

siesta: WARNING: XV file not found

siesta: Atomic coordinates (Bohr) and species
siesta:      0.00000   0.00000   0.00000  1        1

siesta: System type = bulk      

initatomlists: Number of atoms, orbitals, and projectors:      1    15    16

siesta: ******************** Simulation parameters ****************************
siesta:
siesta: The following are some of the parameters of the simulation.
siesta: A complete list of the parameters used, including default values,
siesta: can be found in file out.fdf
siesta:
redata: Non-Collinear-spin run           =     F
redata: SpinPolarized (Up/Down) run      =     F
redata: Number of spin components        =     1
redata: Long output                      =     T
redata: Number of Atomic Species         =        1
redata: Charge density info will appear in .RHO file
redata: Write Mulliken Pop.              =     Atomic and Orbital charges
redata: Mesh Cutoff                      =   400.0000  Ry
redata: Net charge of the system         =     0.0000 |e|
redata: Max. number of SCF Iter          =      400
redata: Performing Pulay mixing using    =    10 iterations
redata: Mix DM in first SCF step ?       =     F
redata: Write Pulay info on disk?        =     F
redata: New DM Mixing Weight             =     0.1000
redata: New DM Occupancy tolerance       = 0.000000000001
redata: Kick with linear mixing every    =   100 iterations
redata: DM Mixing Weight for Kicks       =     0.1000
redata: DM Tolerance for SCF             =     0.000100
redata: Require Energy convergence for SCF =     F
redata: DM Energy tolerance for SCF      =     0.000100 eV
redata: Require Harris convergence for SCF =     F
redata: DM Harris energy tolerance for SCF =     0.000100 eV
redata: Using Saved Data (generic)   =     T
redata: Use continuation files for DM    =     T
redata: Neglect nonoverlap interactions  =     F
redata: Method of Calculation            =     Diagonalization
redata: Divide and Conquer               =     T
redata: Electronic Temperature           =     0.0019  Ry
redata: Fix the spin of the system       =     F
redata: Dynamics option                  =     CG coord. optimization
redata: Variable cell                    =     F
redata: Use continuation files for CG    =     T
redata: Max atomic displ per move        =     0.2000  Bohr
redata: Maximum number of CG moves       =        0
redata: Force tolerance                  =     0.0016  Ry/Bohr
redata: ***********************************************************************
 
ts_read_options: **************************************************************
ts_read_options: Save H and S matrices        =    T
ts_read_options: Mixing Hamiltonian           =    F
ts_read_options: TranSIESTA Voltage           =    0.0000 Volts
ts_read_options: TriDiag                      =    F
ts_read_options: Update DM Contact Reg. only  =    T
ts_read_options: N. Buffer At. Left           =    0
ts_read_options: N. Buffer At. Right          =    0
ts_read_options: N. Pts. Circle               =   24
ts_read_options: N. Pts. Line                 =    6
ts_read_options: N. Poles in Contour          =    6
ts_read_options: N. Pts. Bias Contour         =    5
ts_read_options: Contour E Min.               =   -3.0000 Ry
ts_read_options: GFEta                        =    0.000001 Ry
ts_read_options: Electronic Temperature       =    0.0019 Ry
ts_read_options: Bias Contour Method          =    gaussfermi          
ts_read_options: Left GF File                 =    Left.GF                          
ts_read_options: Right GF File                =    Right.GF                         
ts_read_options: Calculate GF                 =    T
ts_read_options: **************************************************************
 
************************ Begin: TS CHECKS AND WARNINGS ************************
************************ End: TS CHECKS AND WARNINGS **************************
 
Total number of electrons:    11.000000
Total ionic charge:    11.000000

* ProcessorY, Blocksize:    1  15

 Kpoints in:          726 . Kpoints trimmed:          666

siesta: k-point coordinates (Bohr**-1) and weights:
siesta:    1    0.000000    0.000000   -0.837300       0.001503
siesta:    2   -0.083730    0.083730   -0.753570       0.001503
siesta:    3   -0.167460    0.167460   -0.669840       0.001503
siesta:    4   -0.251190    0.251190   -0.586110       0.001503
siesta:    5   -0.334920    0.334920   -0.502380       0.001503
siesta:    6   -0.418650    0.418650   -0.418650       0.001503
siesta:    7   -0.502380    0.502380   -0.334920       0.001503
siesta:    8   -0.586110    0.586110   -0.251190       0.001503
siesta:    9   -0.669840    0.669840   -0.167460       0.001503
siesta:   10   -0.753570    0.753570   -0.083730       0.001503
siesta:   11   -0.837300    0.837300    0.000000       0.001503
siesta:   12    0.083730   -0.083730   -0.753570       0.001503
siesta:   13    0.000000    0.000000   -0.669840       0.001503
siesta:   14   -0.083730    0.083730   -0.586110       0.001503
siesta:   15   -0.167460    0.167460   -0.502380       0.001503
siesta:   16   -0.251190    0.251190   -0.418650       0.001503
siesta:   17   -0.334920    0.334920   -0.334920       0.001503
siesta:   18   -0.418650    0.418650   -0.251190       0.001503
siesta:   19   -0.502380    0.502380   -0.167460       0.001503
siesta:   20   -0.586110    0.586110   -0.083730       0.001503
siesta:   21   -0.669840    0.669840    0.000000       0.001503
siesta:   22   -0.753570    0.753570    0.083730       0.001503
siesta:   23    0.167460   -0.167460   -0.669840       0.001503
siesta:   24    0.083730   -0.083730   -0.586110       0.001503
siesta:   25    0.000000    0.000000   -0.502380       0.001503
siesta:   26   -0.083730    0.083730   -0.418650       0.001503
siesta:   27   -0.167460    0.167460   -0.334920       0.001503
siesta:   28   -0.251190    0.251190   -0.251190       0.001503
siesta:   29   -0.334920    0.334920   -0.167460       0.001503
siesta:   30   -0.418650    0.418650   -0.083730       0.001503
siesta:   31   -0.502380    0.502380    0.000000       0.001503
siesta:   32   -0.586110    0.586110    0.083730       0.001503
siesta:   33   -0.669840    0.669840    0.167460       0.001503
siesta:   34    0.251190   -0.251190   -0.586110       0.001503
siesta:   35    0.167460   -0.167460   -0.502380       0.001503
siesta:   36    0.083730   -0.083730   -0.418650       0.001503
siesta:   37    0.000000    0.000000   -0.334920       0.001503
siesta:   38   -0.083730    0.083730   -0.251190       0.001503
siesta:   39   -0.167460    0.167460   -0.167460       0.001503
siesta:   40   -0.251190    0.251190   -0.083730       0.001503
siesta:   41   -0.334920    0.334920    0.000000       0.001503
siesta:   42   -0.418650    0.418650    0.083730       0.001503
siesta:   43   -0.502380    0.502380    0.167460       0.001503
siesta:   44   -0.586110    0.586110    0.251190       0.001503
siesta:   45    0.334920   -0.334920   -0.502380       0.001503
siesta:   46    0.251190   -0.251190   -0.418650       0.001503
siesta:   47    0.167460   -0.167460   -0.334920       0.001503
siesta:   48    0.083730   -0.083730   -0.251190       0.001503
siesta:   49    0.000000    0.000000   -0.167460       0.001503
siesta:   50   -0.083730    0.083730   -0.083730       0.001503
siesta:   51   -0.167460    0.167460    0.000000       0.001503
siesta:   52   -0.251190    0.251190    0.083730       0.001503
siesta:   53   -0.334920    0.334920    0.167460       0.001503
siesta:   54   -0.418650    0.418650    0.251190       0.001503
siesta:   55   -0.502380    0.502380    0.334920       0.001503
siesta:   56    0.418650   -0.418650   -0.418650       0.001503
siesta:   57    0.334920   -0.334920   -0.334920       0.001503
siesta:   58    0.251190   -0.251190   -0.251190       0.001503
siesta:   59    0.167460   -0.167460   -0.167460       0.001503
siesta:   60    0.083730   -0.083730   -0.083730       0.001503
siesta:   61    0.000000    0.000000    0.000000       0.000751
siesta:   62    0.083730    0.083730   -0.921030       0.001503
siesta:   63    0.000000    0.167460   -0.837300       0.001503
siesta:   64   -0.083730    0.251190   -0.753570       0.001503
siesta:   65   -0.167460    0.334920   -0.669840       0.001503
siesta:   66   -0.251190    0.418650   -0.586110       0.001503
siesta:   67   -0.334920    0.502380   -0.502380       0.001503
siesta:   68   -0.418650    0.586110   -0.418650       0.001503
siesta:   69   -0.502380    0.669840   -0.334920       0.001503
siesta:   70   -0.586110    0.753570   -0.251190       0.001503
siesta:   71   -0.669840    0.837300   -0.167460       0.001503
siesta:   72   -0.753570    0.921030   -0.083730       0.001503
siesta:   73    0.167460    0.000000   -0.837300       0.001503
siesta:   74    0.083730    0.083730   -0.753570       0.001503
siesta:   75    0.000000    0.167460   -0.669840       0.001503
siesta:   76   -0.083730    0.251190   -0.586110       0.001503
siesta:   77   -0.167460    0.334920   -0.502380       0.001503
siesta:   78   -0.251190    0.418650   -0.418650       0.001503
siesta:   79   -0.334920    0.502380   -0.334920       0.001503
siesta:   80   -0.418650    0.586110   -0.251190       0.001503
siesta:   81   -0.502380    0.669840   -0.167460       0.001503
siesta:   82   -0.586110    0.753570   -0.083730       0.001503
siesta:   83   -0.669840    0.837300    0.000000       0.001503
siesta:   84    0.251190   -0.083730   -0.753570       0.001503
siesta:   85    0.167460    0.000000   -0.669840       0.001503
siesta:   86    0.083730    0.083730   -0.586110       0.001503
siesta:   87    0.000000    0.167460   -0.502380       0.001503
siesta:   88   -0.083730    0.251190   -0.418650       0.001503
siesta:   89   -0.167460    0.334920   -0.334920       0.001503
siesta:   90   -0.251190    0.418650   -0.251190       0.001503
siesta:   91   -0.334920    0.502380   -0.167460       0.001503
siesta:   92   -0.418650    0.586110   -0.083730       0.001503
siesta:   93   -0.502380    0.669840    0.000000       0.001503
siesta:   94   -0.586110    0.753570    0.083730       0.001503
siesta:   95    0.334920   -0.167460   -0.669840       0.001503
siesta:   96    0.251190   -0.083730   -0.586110       0.001503
siesta:   97    0.167460    0.000000   -0.502380       0.001503
siesta:   98    0.083730    0.083730   -0.418650       0.001503
siesta:   99    0.000000    0.167460   -0.334920       0.001503
siesta:  100   -0.083730    0.251190   -0.251190       0.001503
siesta:  101   -0.167460    0.334920   -0.167460       0.001503
siesta:  102   -0.251190    0.418650   -0.083730       0.001503
siesta:  103   -0.334920    0.502380    0.000000       0.001503
siesta:  104   -0.418650    0.586110    0.083730       0.001503
siesta:  105   -0.502380    0.669840    0.167460       0.001503
siesta:  106    0.418650   -0.251190   -0.586110       0.001503
siesta:  107    0.334920   -0.167460   -0.502380       0.001503
siesta:  108    0.251190   -0.083730   -0.418650       0.001503
siesta:  109    0.167460    0.000000   -0.334920       0.001503
siesta:  110    0.083730    0.083730   -0.251190       0.001503
siesta:  111    0.000000    0.167460   -0.167460       0.001503
siesta:  112   -0.083730    0.251190   -0.083730       0.001503
siesta:  113   -0.167460    0.334920    0.000000       0.001503
siesta:  114   -0.251190    0.418650    0.083730       0.001503
siesta:  115   -0.334920    0.502380    0.167460       0.001503
siesta:  116   -0.418650    0.586110    0.251190       0.001503
siesta:  117    0.502380   -0.334920   -0.502380       0.001503
siesta:  118    0.418650   -0.251190   -0.418650       0.001503
siesta:  119    0.334920   -0.167460   -0.334920       0.001503
siesta:  120    0.251190   -0.083730   -0.251190       0.001503
siesta:  121    0.167460    0.000000   -0.167460       0.001503
siesta:  122    0.083730    0.083730   -0.083730       0.001503
siesta:  123    0.000000    0.167460    0.000000       0.001503
siesta:  124   -0.083730    0.251190    0.083730       0.001503
siesta:  125   -0.167460    0.334920    0.167460       0.001503
siesta:  126   -0.251190    0.418650    0.251190       0.001503
siesta:  127   -0.334920    0.502380    0.334920       0.001503
siesta:  128    0.586110   -0.418650   -0.418650       0.001503
siesta:  129    0.502380   -0.334920   -0.334920       0.001503
siesta:  130    0.418650   -0.251190   -0.251190       0.001503
siesta:  131    0.334920   -0.167460   -0.167460       0.001503
siesta:  132    0.251190   -0.083730   -0.083730       0.001503
siesta:  133    0.167460    0.000000    0.000000       0.001503
siesta:  134    0.083730    0.083730    0.083730       0.001503
siesta:  135    0.000000    0.167460    0.167460       0.001503
siesta:  136   -0.083730    0.251190    0.251190       0.001503
siesta:  137   -0.167460    0.334920    0.334920       0.001503
siesta:  138   -0.251190    0.418650    0.418650       0.001503
siesta:  139    0.669840   -0.502380   -0.334920       0.001503
siesta:  140    0.586110   -0.418650   -0.251190       0.001503
siesta:  141    0.502380   -0.334920   -0.167460       0.001503
siesta:  142    0.418650   -0.251190   -0.083730       0.001503
siesta:  143    0.334920   -0.167460    0.000000       0.001503
siesta:  144    0.251190   -0.083730    0.083730       0.001503
siesta:  145    0.167460    0.000000    0.167460       0.001503
siesta:  146    0.083730    0.083730    0.251190       0.001503
siesta:  147    0.000000    0.167460    0.334920       0.001503
siesta:  148   -0.083730    0.251190    0.418650       0.001503
siesta:  149   -0.167460    0.334920    0.502380       0.001503
siesta:  150    0.753570   -0.586110   -0.251190       0.001503
siesta:  151    0.669840   -0.502380   -0.167460       0.001503
siesta:  152    0.586110   -0.418650   -0.083730       0.001503
siesta:  153    0.502380   -0.334920    0.000000       0.001503
siesta:  154    0.418650   -0.251190    0.083730       0.001503
siesta:  155    0.334920   -0.167460    0.167460       0.001503
siesta:  156    0.251190   -0.083730    0.251190       0.001503
siesta:  157    0.167460    0.000000    0.334920       0.001503
siesta:  158    0.083730    0.083730    0.418650       0.001503
siesta:  159    0.000000    0.167460    0.502380       0.001503
siesta:  160   -0.083730    0.251190    0.586110       0.001503
siesta:  161    0.837300   -0.669840   -0.167460       0.001503
siesta:  162    0.753570   -0.586110   -0.083730       0.001503
siesta:  163    0.669840   -0.502380    0.000000       0.001503
siesta:  164    0.586110   -0.418650    0.083730       0.001503
siesta:  165    0.502380   -0.334920    0.167460       0.001503
siesta:  166    0.418650   -0.251190    0.251190       0.001503
siesta:  167    0.334920   -0.167460    0.334920       0.001503
siesta:  168    0.251190   -0.083730    0.418650       0.001503
siesta:  169    0.167460    0.000000    0.502380       0.001503
siesta:  170    0.083730    0.083730    0.586110       0.001503
siesta:  171    0.000000    0.167460    0.669840       0.001503
siesta:  172    0.921030   -0.753570   -0.083730       0.001503
siesta:  173    0.837300   -0.669840    0.000000       0.001503
siesta:  174    0.753570   -0.586110    0.083730       0.001503
siesta:  175    0.669840   -0.502380    0.167460       0.001503
siesta:  176    0.586110   -0.418650    0.251190       0.001503
siesta:  177    0.502380   -0.334920    0.334920       0.001503
siesta:  178    0.418650   -0.251190    0.418650       0.001503
siesta:  179    0.334920   -0.167460    0.502380       0.001503
siesta:  180    0.251190   -0.083730    0.586110       0.001503
siesta:  181    0.167460    0.000000    0.669840       0.001503
siesta:  182    0.083730    0.083730    0.753570       0.001503
siesta:  183    0.167460    0.167460   -1.004760       0.001503
siesta:  184    0.083730    0.251190   -0.921030       0.001503
siesta:  185    0.000000    0.334920   -0.837300       0.001503
siesta:  186   -0.083730    0.418650   -0.753570       0.001503
siesta:  187   -0.167460    0.502380   -0.669840       0.001503
siesta:  188   -0.251190    0.586110   -0.586110       0.001503
siesta:  189   -0.334920    0.669840   -0.502380       0.001503
siesta:  190   -0.418650    0.753570   -0.418650       0.001503
siesta:  191   -0.502380    0.837300   -0.334920       0.001503
siesta:  192   -0.586110    0.921030   -0.251190       0.001503
siesta:  193   -0.669840    1.004760   -0.167460       0.001503
siesta:  194    0.251190    0.083730   -0.921030       0.001503
siesta:  195    0.167460    0.167460   -0.837300       0.001503
siesta:  196    0.083730    0.251190   -0.753570       0.001503
siesta:  197    0.000000    0.334920   -0.669840       0.001503
siesta:  198   -0.083730    0.418650   -0.586110       0.001503
siesta:  199   -0.167460    0.502380   -0.502380       0.001503
siesta:  200   -0.251190    0.586110   -0.418650       0.001503
siesta:  201   -0.334920    0.669840   -0.334920       0.001503
siesta:  202   -0.418650    0.753570   -0.251190       0.001503
siesta:  203   -0.502380    0.837300   -0.167460       0.001503
siesta:  204   -0.586110    0.921030   -0.083730       0.001503
siesta:  205    0.334920    0.000000   -0.837300       0.001503
siesta:  206    0.251190    0.083730   -0.753570       0.001503
siesta:  207    0.167460    0.167460   -0.669840       0.001503
siesta:  208    0.083730    0.251190   -0.586110       0.001503
siesta:  209    0.000000    0.334920   -0.502380       0.001503
siesta:  210   -0.083730    0.418650   -0.418650       0.001503
siesta:  211   -0.167460    0.502380   -0.334920       0.001503
siesta:  212   -0.251190    0.586110   -0.251190       0.001503
siesta:  213   -0.334920    0.669840   -0.167460       0.001503
siesta:  214   -0.418650    0.753570   -0.083730       0.001503
siesta:  215   -0.502380    0.837300    0.000000       0.001503
siesta:  216    0.418650   -0.083730   -0.753570       0.001503
siesta:  217    0.334920    0.000000   -0.669840       0.001503
siesta:  218    0.251190    0.083730   -0.586110       0.001503
siesta:  219    0.167460    0.167460   -0.502380       0.001503
siesta:  220    0.083730    0.251190   -0.418650       0.001503
siesta:  221    0.000000    0.334920   -0.334920       0.001503
siesta:  222   -0.083730    0.418650   -0.251190       0.001503
siesta:  223   -0.167460    0.502380   -0.167460       0.001503
siesta:  224   -0.251190    0.586110   -0.083730       0.001503
siesta:  225   -0.334920    0.669840    0.000000       0.001503
siesta:  226   -0.418650    0.753570    0.083730       0.001503
siesta:  227    0.502380   -0.167460   -0.669840       0.001503
siesta:  228    0.418650   -0.083730   -0.586110       0.001503
siesta:  229    0.334920    0.000000   -0.502380       0.001503
siesta:  230    0.251190    0.083730   -0.418650       0.001503
siesta:  231    0.167460    0.167460   -0.334920       0.001503
siesta:  232    0.083730    0.251190   -0.251190       0.001503
siesta:  233    0.000000    0.334920   -0.167460       0.001503
siesta:  234   -0.083730    0.418650   -0.083730       0.001503
siesta:  235   -0.167460    0.502380    0.000000       0.001503
siesta:  236   -0.251190    0.586110    0.083730       0.001503
siesta:  237   -0.334920    0.669840    0.167460       0.001503
siesta:  238    0.586110   -0.251190   -0.586110       0.001503
siesta:  239    0.502380   -0.167460   -0.502380       0.001503
siesta:  240    0.418650   -0.083730   -0.418650       0.001503
siesta:  241    0.334920    0.000000   -0.334920       0.001503
siesta:  242    0.251190    0.083730   -0.251190       0.001503
siesta:  243    0.167460    0.167460   -0.167460       0.001503
siesta:  244    0.083730    0.251190   -0.083730       0.001503
siesta:  245    0.000000    0.334920    0.000000       0.001503
siesta:  246   -0.083730    0.418650    0.083730       0.001503
siesta:  247   -0.167460    0.502380    0.167460       0.001503
siesta:  248   -0.251190    0.586110    0.251190       0.001503
siesta:  249    0.669840   -0.334920   -0.502380       0.001503
siesta:  250    0.586110   -0.251190   -0.418650       0.001503
siesta:  251    0.502380   -0.167460   -0.334920       0.001503
siesta:  252    0.418650   -0.083730   -0.251190       0.001503
siesta:  253    0.334920    0.000000   -0.167460       0.001503
siesta:  254    0.251190    0.083730   -0.083730       0.001503
siesta:  255    0.167460    0.167460    0.000000       0.001503
siesta:  256    0.083730    0.251190    0.083730       0.001503
siesta:  257    0.000000    0.334920    0.167460       0.001503
siesta:  258   -0.083730    0.418650    0.251190       0.001503
siesta:  259   -0.167460    0.502380    0.334920       0.001503
siesta:  260    0.753570   -0.418650   -0.418650       0.001503
siesta:  261    0.669840   -0.334920   -0.334920       0.001503
siesta:  262    0.586110   -0.251190   -0.251190       0.001503
siesta:  263    0.502380   -0.167460   -0.167460       0.001503
siesta:  264    0.418650   -0.083730   -0.083730       0.001503
siesta:  265    0.334920    0.000000    0.000000       0.001503
siesta:  266    0.251190    0.083730    0.083730       0.001503
siesta:  267    0.167460    0.167460    0.167460       0.001503
siesta:  268    0.083730    0.251190    0.251190       0.001503
siesta:  269    0.000000    0.334920    0.334920       0.001503
siesta:  270   -0.083730    0.418650    0.418650       0.001503
siesta:  271    0.837300   -0.502380   -0.334920       0.001503
siesta:  272    0.753570   -0.418650   -0.251190       0.001503
siesta:  273    0.669840   -0.334920   -0.167460       0.001503
siesta:  274    0.586110   -0.251190   -0.083730       0.001503
siesta:  275    0.502380   -0.167460    0.000000       0.001503
siesta:  276    0.418650   -0.083730    0.083730       0.001503
siesta:  277    0.334920    0.000000    0.167460       0.001503
siesta:  278    0.251190    0.083730    0.251190       0.001503
siesta:  279    0.167460    0.167460    0.334920       0.001503
siesta:  280    0.083730    0.251190    0.418650       0.001503
siesta:  281    0.000000    0.334920    0.502380       0.001503
siesta:  282    0.921030   -0.586110   -0.251190       0.001503
siesta:  283    0.837300   -0.502380   -0.167460       0.001503
siesta:  284    0.753570   -0.418650   -0.083730       0.001503
siesta:  285    0.669840   -0.334920    0.000000       0.001503
siesta:  286    0.586110   -0.251190    0.083730       0.001503
siesta:  287    0.502380   -0.167460    0.167460       0.001503
siesta:  288    0.418650   -0.083730    0.251190       0.001503
siesta:  289    0.334920    0.000000    0.334920       0.001503
siesta:  290    0.251190    0.083730    0.418650       0.001503
siesta:  291    0.167460    0.167460    0.502380       0.001503
siesta:  292    0.083730    0.251190    0.586110       0.001503
siesta:  293    1.004760   -0.669840   -0.167460       0.001503
siesta:  294    0.921030   -0.586110   -0.083730       0.001503
siesta:  295    0.837300   -0.502380    0.000000       0.001503
siesta:  296    0.753570   -0.418650    0.083730       0.001503
siesta:  297    0.669840   -0.334920    0.167460       0.001503
siesta:  298    0.586110   -0.251190    0.251190       0.001503
siesta:  299    0.502380   -0.167460    0.334920       0.001503
siesta:  300    0.418650   -0.083730    0.418650       0.001503
siesta:  301    0.334920    0.000000    0.502380       0.001503
siesta:  302    0.251190    0.083730    0.586110       0.001503
siesta:  303    0.167460    0.167460    0.669840       0.001503
siesta:  304    0.251190    0.251190   -1.088490       0.001503
siesta:  305    0.167460    0.334920   -1.004760       0.001503
siesta:  306    0.083730    0.418650   -0.921030       0.001503
siesta:  307    0.000000    0.502380   -0.837300       0.001503
siesta:  308   -0.083730    0.586110   -0.753570       0.001503
siesta:  309   -0.167460    0.669840   -0.669840       0.001503
siesta:  310   -0.251190    0.753570   -0.586110       0.001503
siesta:  311   -0.334920    0.837300   -0.502380       0.001503
siesta:  312   -0.418650    0.921030   -0.418650       0.001503
siesta:  313   -0.502380    1.004760   -0.334920       0.001503
siesta:  314   -0.586110    1.088490   -0.251190       0.001503
siesta:  315    0.334920    0.167460   -1.004760       0.001503
siesta:  316    0.251190    0.251190   -0.921030       0.001503
siesta:  317    0.167460    0.334920   -0.837300       0.001503
siesta:  318    0.083730    0.418650   -0.753570       0.001503
siesta:  319    0.000000    0.502380   -0.669840       0.001503
siesta:  320   -0.083730    0.586110   -0.586110       0.001503
siesta:  321   -0.167460    0.669840   -0.502380       0.001503
siesta:  322   -0.251190    0.753570   -0.418650       0.001503
siesta:  323   -0.334920    0.837300   -0.334920       0.001503
siesta:  324   -0.418650    0.921030   -0.251190       0.001503
siesta:  325   -0.502380    1.004760   -0.167460       0.001503
siesta:  326    0.418650    0.083730   -0.921030       0.001503
siesta:  327    0.334920    0.167460   -0.837300       0.001503
siesta:  328    0.251190    0.251190   -0.753570       0.001503
siesta:  329    0.167460    0.334920   -0.669840       0.001503
siesta:  330    0.083730    0.418650   -0.586110       0.001503
siesta:  331    0.000000    0.502380   -0.502380       0.001503
siesta:  332   -0.083730    0.586110   -0.418650       0.001503
siesta:  333   -0.167460    0.669840   -0.334920       0.001503
siesta:  334   -0.251190    0.753570   -0.251190       0.001503
siesta:  335   -0.334920    0.837300   -0.167460       0.001503
siesta:  336   -0.418650    0.921030   -0.083730       0.001503
siesta:  337    0.502380    0.000000   -0.837300       0.001503
siesta:  338    0.418650    0.083730   -0.753570       0.001503
siesta:  339    0.334920    0.167460   -0.669840       0.001503
siesta:  340    0.251190    0.251190   -0.586110       0.001503
siesta:  341    0.167460    0.334920   -0.502380       0.001503
siesta:  342    0.083730    0.418650   -0.418650       0.001503
siesta:  343    0.000000    0.502380   -0.334920       0.001503
siesta:  344   -0.083730    0.586110   -0.251190       0.001503
siesta:  345   -0.167460    0.669840   -0.167460       0.001503
siesta:  346   -0.251190    0.753570   -0.083730       0.001503
siesta:  347   -0.334920    0.837300    0.000000       0.001503
siesta:  348    0.586110   -0.083730   -0.753570       0.001503
siesta:  349    0.502380    0.000000   -0.669840       0.001503
siesta:  350    0.418650    0.083730   -0.586110       0.001503
siesta:  351    0.334920    0.167460   -0.502380       0.001503
siesta:  352    0.251190    0.251190   -0.418650       0.001503
siesta:  353    0.167460    0.334920   -0.334920       0.001503
siesta:  354    0.083730    0.418650   -0.251190       0.001503
siesta:  355    0.000000    0.502380   -0.167460       0.001503
siesta:  356   -0.083730    0.586110   -0.083730       0.001503
siesta:  357   -0.167460    0.669840    0.000000       0.001503
siesta:  358   -0.251190    0.753570    0.083730       0.001503
siesta:  359    0.669840   -0.167460   -0.669840       0.001503
siesta:  360    0.586110   -0.083730   -0.586110       0.001503
siesta:  361    0.502380    0.000000   -0.502380       0.001503
siesta:  362    0.418650    0.083730   -0.418650       0.001503
siesta:  363    0.334920    0.167460   -0.334920       0.001503
siesta:  364    0.251190    0.251190   -0.251190       0.001503
siesta:  365    0.167460    0.334920   -0.167460       0.001503
siesta:  366    0.083730    0.418650   -0.083730       0.001503
siesta:  367    0.000000    0.502380    0.000000       0.001503
siesta:  368   -0.083730    0.586110    0.083730       0.001503
siesta:  369   -0.167460    0.669840    0.167460       0.001503
siesta:  370    0.753570   -0.251190   -0.586110       0.001503
siesta:  371    0.669840   -0.167460   -0.502380       0.001503
siesta:  372    0.586110   -0.083730   -0.418650       0.001503
siesta:  373    0.502380    0.000000   -0.334920       0.001503
siesta:  374    0.418650    0.083730   -0.251190       0.001503
siesta:  375    0.334920    0.167460   -0.167460       0.001503
siesta:  376    0.251190    0.251190   -0.083730       0.001503
siesta:  377    0.167460    0.334920    0.000000       0.001503
siesta:  378    0.083730    0.418650    0.083730       0.001503
siesta:  379    0.000000    0.502380    0.167460       0.001503
siesta:  380   -0.083730    0.586110    0.251190       0.001503
siesta:  381    0.837300   -0.334920   -0.502380       0.001503
siesta:  382    0.753570   -0.251190   -0.418650       0.001503
siesta:  383    0.669840   -0.167460   -0.334920       0.001503
siesta:  384    0.586110   -0.083730   -0.251190       0.001503
siesta:  385    0.502380    0.000000   -0.167460       0.001503
siesta:  386    0.418650    0.083730   -0.083730       0.001503
siesta:  387    0.334920    0.167460    0.000000       0.001503
siesta:  388    0.251190    0.251190    0.083730       0.001503
siesta:  389    0.167460    0.334920    0.167460       0.001503
siesta:  390    0.083730    0.418650    0.251190       0.001503
siesta:  391    0.000000    0.502380    0.334920       0.001503
siesta:  392    0.921030   -0.418650   -0.418650       0.001503
siesta:  393    0.837300   -0.334920   -0.334920       0.001503
siesta:  394    0.753570   -0.251190   -0.251190       0.001503
siesta:  395    0.669840   -0.167460   -0.167460       0.001503
siesta:  396    0.586110   -0.083730   -0.083730       0.001503
siesta:  397    0.502380    0.000000    0.000000       0.001503
siesta:  398    0.418650    0.083730    0.083730       0.001503
siesta:  399    0.334920    0.167460    0.167460       0.001503
siesta:  400    0.251190    0.251190    0.251190       0.001503
siesta:  401    0.167460    0.334920    0.334920       0.001503
siesta:  402    0.083730    0.418650    0.418650       0.001503
siesta:  403    1.004760   -0.502380   -0.334920       0.001503
siesta:  404    0.921030   -0.418650   -0.251190       0.001503
siesta:  405    0.837300   -0.334920   -0.167460       0.001503
siesta:  406    0.753570   -0.251190   -0.083730       0.001503
siesta:  407    0.669840   -0.167460    0.000000       0.001503
siesta:  408    0.586110   -0.083730    0.083730       0.001503
siesta:  409    0.502380    0.000000    0.167460       0.001503
siesta:  410    0.418650    0.083730    0.251190       0.001503
siesta:  411    0.334920    0.167460    0.334920       0.001503
siesta:  412    0.251190    0.251190    0.418650       0.001503
siesta:  413    0.167460    0.334920    0.502380       0.001503
siesta:  414    1.088490   -0.586110   -0.251190       0.001503
siesta:  415    1.004760   -0.502380   -0.167460       0.001503
siesta:  416    0.921030   -0.418650   -0.083730       0.001503
siesta:  417    0.837300   -0.334920    0.000000       0.001503
siesta:  418    0.753570   -0.251190    0.083730       0.001503
siesta:  419    0.669840   -0.167460    0.167460       0.001503
siesta:  420    0.586110   -0.083730    0.251190       0.001503
siesta:  421    0.502380    0.000000    0.334920       0.001503
siesta:  422    0.418650    0.083730    0.418650       0.001503
siesta:  423    0.334920    0.167460    0.502380       0.001503
siesta:  424    0.251190    0.251190    0.586110       0.001503
siesta:  425    0.334920    0.334920   -1.172220       0.001503
siesta:  426    0.251190    0.418650   -1.088490       0.001503
siesta:  427    0.167460    0.502380   -1.004760       0.001503
siesta:  428    0.083730    0.586110   -0.921030       0.001503
siesta:  429    0.000000    0.669840   -0.837300       0.001503
siesta:  430   -0.083730    0.753570   -0.753570       0.001503
siesta:  431   -0.167460    0.837300   -0.669840       0.001503
siesta:  432   -0.251190    0.921030   -0.586110       0.001503
siesta:  433   -0.334920    1.004760   -0.502380       0.001503
siesta:  434   -0.418650    1.088490   -0.418650       0.001503
siesta:  435   -0.502380    1.172220   -0.334920       0.001503
siesta:  436    0.418650    0.251190   -1.088490       0.001503
siesta:  437    0.334920    0.334920   -1.004760       0.001503
siesta:  438    0.251190    0.418650   -0.921030       0.001503
siesta:  439    0.167460    0.502380   -0.837300       0.001503
siesta:  440    0.083730    0.586110   -0.753570       0.001503
siesta:  441    0.000000    0.669840   -0.669840       0.001503
siesta:  442   -0.083730    0.753570   -0.586110       0.001503
siesta:  443   -0.167460    0.837300   -0.502380       0.001503
siesta:  444   -0.251190    0.921030   -0.418650       0.001503
siesta:  445   -0.334920    1.004760   -0.334920       0.001503
siesta:  446   -0.418650    1.088490   -0.251190       0.001503
siesta:  447    0.502380    0.167460   -1.004760       0.001503
siesta:  448    0.418650    0.251190   -0.921030       0.001503
siesta:  449    0.334920    0.334920   -0.837300       0.001503
siesta:  450    0.251190    0.418650   -0.753570       0.001503
siesta:  451    0.167460    0.502380   -0.669840       0.001503
siesta:  452    0.083730    0.586110   -0.586110       0.001503
siesta:  453    0.000000    0.669840   -0.502380       0.001503
siesta:  454   -0.083730    0.753570   -0.418650       0.001503
siesta:  455   -0.167460    0.837300   -0.334920       0.001503
siesta:  456   -0.251190    0.921030   -0.251190       0.001503
siesta:  457   -0.334920    1.004760   -0.167460       0.001503
siesta:  458    0.586110    0.083730   -0.921030       0.001503
siesta:  459    0.502380    0.167460   -0.837300       0.001503
siesta:  460    0.418650    0.251190   -0.753570       0.001503
siesta:  461    0.334920    0.334920   -0.669840       0.001503
siesta:  462    0.251190    0.418650   -0.586110       0.001503
siesta:  463    0.167460    0.502380   -0.502380       0.001503
siesta:  464    0.083730    0.586110   -0.418650       0.001503
siesta:  465    0.000000    0.669840   -0.334920       0.001503
siesta:  466   -0.083730    0.753570   -0.251190       0.001503
siesta:  467   -0.167460    0.837300   -0.167460       0.001503
siesta:  468   -0.251190    0.921030   -0.083730       0.001503
siesta:  469    0.669840    0.000000   -0.837300       0.001503
siesta:  470    0.586110    0.083730   -0.753570       0.001503
siesta:  471    0.502380    0.167460   -0.669840       0.001503
siesta:  472    0.418650    0.251190   -0.586110       0.001503
siesta:  473    0.334920    0.334920   -0.502380       0.001503
siesta:  474    0.251190    0.418650   -0.418650       0.001503
siesta:  475    0.167460    0.502380   -0.334920       0.001503
siesta:  476    0.083730    0.586110   -0.251190       0.001503
siesta:  477    0.000000    0.669840   -0.167460       0.001503
siesta:  478   -0.083730    0.753570   -0.083730       0.001503
siesta:  479   -0.167460    0.837300    0.000000       0.001503
siesta:  480    0.753570   -0.083730   -0.753570       0.001503
siesta:  481    0.669840    0.000000   -0.669840       0.001503
siesta:  482    0.586110    0.083730   -0.586110       0.001503
siesta:  483    0.502380    0.167460   -0.502380       0.001503
siesta:  484    0.418650    0.251190   -0.418650       0.001503
siesta:  485    0.334920    0.334920   -0.334920       0.001503
siesta:  486    0.251190    0.418650   -0.251190       0.001503
siesta:  487    0.167460    0.502380   -0.167460       0.001503
siesta:  488    0.083730    0.586110   -0.083730       0.001503
siesta:  489    0.000000    0.669840    0.000000       0.001503
siesta:  490   -0.083730    0.753570    0.083730       0.001503
siesta:  491    0.837300   -0.167460   -0.669840       0.001503
siesta:  492    0.753570   -0.083730   -0.586110       0.001503
siesta:  493    0.669840    0.000000   -0.502380       0.001503
siesta:  494    0.586110    0.083730   -0.418650       0.001503
siesta:  495    0.502380    0.167460   -0.334920       0.001503
siesta:  496    0.418650    0.251190   -0.251190       0.001503
siesta:  497    0.334920    0.334920   -0.167460       0.001503
siesta:  498    0.251190    0.418650   -0.083730       0.001503
siesta:  499    0.167460    0.502380    0.000000       0.001503
siesta:  500    0.083730    0.586110    0.083730       0.001503
siesta:  501    0.000000    0.669840    0.167460       0.001503
siesta:  502    0.921030   -0.251190   -0.586110       0.001503
siesta:  503    0.837300   -0.167460   -0.502380       0.001503
siesta:  504    0.753570   -0.083730   -0.418650       0.001503
siesta:  505    0.669840    0.000000   -0.334920       0.001503
siesta:  506    0.586110    0.083730   -0.251190       0.001503
siesta:  507    0.502380    0.167460   -0.167460       0.001503
siesta:  508    0.418650    0.251190   -0.083730       0.001503
siesta:  509    0.334920    0.334920    0.000000       0.001503
siesta:  510    0.251190    0.418650    0.083730       0.001503
siesta:  511    0.167460    0.502380    0.167460       0.001503
siesta:  512    0.083730    0.586110    0.251190       0.001503
siesta:  513    1.004760   -0.334920   -0.502380       0.001503
siesta:  514    0.921030   -0.251190   -0.418650       0.001503
siesta:  515    0.837300   -0.167460   -0.334920       0.001503
siesta:  516    0.753570   -0.083730   -0.251190       0.001503
siesta:  517    0.669840    0.000000   -0.167460       0.001503
siesta:  518    0.586110    0.083730   -0.083730       0.001503
siesta:  519    0.502380    0.167460    0.000000       0.001503
siesta:  520    0.418650    0.251190    0.083730       0.001503
siesta:  521    0.334920    0.334920    0.167460       0.001503
siesta:  522    0.251190    0.418650    0.251190       0.001503
siesta:  523    0.167460    0.502380    0.334920       0.001503
siesta:  524    1.088490   -0.418650   -0.418650       0.001503
siesta:  525    1.004760   -0.334920   -0.334920       0.001503
siesta:  526    0.921030   -0.251190   -0.251190       0.001503
siesta:  527    0.837300   -0.167460   -0.167460       0.001503
siesta:  528    0.753570   -0.083730   -0.083730       0.001503
siesta:  529    0.669840    0.000000    0.000000       0.001503
siesta:  530    0.586110    0.083730    0.083730       0.001503
siesta:  531    0.502380    0.167460    0.167460       0.001503
siesta:  532    0.418650    0.251190    0.251190       0.001503
siesta:  533    0.334920    0.334920    0.334920       0.001503
siesta:  534    0.251190    0.418650    0.418650       0.001503
siesta:  535    1.172220   -0.502380   -0.334920       0.001503
siesta:  536    1.088490   -0.418650   -0.251190       0.001503
siesta:  537    1.004760   -0.334920   -0.167460       0.001503
siesta:  538    0.921030   -0.251190   -0.083730       0.001503
siesta:  539    0.837300   -0.167460    0.000000       0.001503
siesta:  540    0.753570   -0.083730    0.083730       0.001503
siesta:  541    0.669840    0.000000    0.167460       0.001503
siesta:  542    0.586110    0.083730    0.251190       0.001503
siesta:  543    0.502380    0.167460    0.334920       0.001503
siesta:  544    0.418650    0.251190    0.418650       0.001503
siesta:  545    0.334920    0.334920    0.502380       0.001503
siesta:  546    0.418650    0.418650   -1.255950       0.001503
siesta:  547    0.334920    0.502380   -1.172220       0.001503
siesta:  548    0.251190    0.586110   -1.088490       0.001503
siesta:  549    0.167460    0.669840   -1.004760       0.001503
siesta:  550    0.083730    0.753570   -0.921030       0.001503
siesta:  551    0.000000    0.837300   -0.837300       0.001503
siesta:  552   -0.083730    0.921030   -0.753570       0.001503
siesta:  553   -0.167460    1.004760   -0.669840       0.001503
siesta:  554   -0.251190    1.088490   -0.586110       0.001503
siesta:  555   -0.334920    1.172220   -0.502380       0.001503
siesta:  556   -0.418650    1.255950   -0.418650       0.001503
siesta:  557    0.502380    0.334920   -1.172220       0.001503
siesta:  558    0.418650    0.418650   -1.088490       0.001503
siesta:  559    0.334920    0.502380   -1.004760       0.001503
siesta:  560    0.251190    0.586110   -0.921030       0.001503
siesta:  561    0.167460    0.669840   -0.837300       0.001503
siesta:  562    0.083730    0.753570   -0.753570       0.001503
siesta:  563    0.000000    0.837300   -0.669840       0.001503
siesta:  564   -0.083730    0.921030   -0.586110       0.001503
siesta:  565   -0.167460    1.004760   -0.502380       0.001503
siesta:  566   -0.251190    1.088490   -0.418650       0.001503
siesta:  567   -0.334920    1.172220   -0.334920       0.001503
siesta:  568    0.586110    0.251190   -1.088490       0.001503
siesta:  569    0.502380    0.334920   -1.004760       0.001503
siesta:  570    0.418650    0.418650   -0.921030       0.001503
siesta:  571    0.334920    0.502380   -0.837300       0.001503
siesta:  572    0.251190    0.586110   -0.753570       0.001503
siesta:  573    0.167460    0.669840   -0.669840       0.001503
siesta:  574    0.083730    0.753570   -0.586110       0.001503
siesta:  575    0.000000    0.837300   -0.502380       0.001503
siesta:  576   -0.083730    0.921030   -0.418650       0.001503
siesta:  577   -0.167460    1.004760   -0.334920       0.001503
siesta:  578   -0.251190    1.088490   -0.251190       0.001503
siesta:  579    0.669840    0.167460   -1.004760       0.001503
siesta:  580    0.586110    0.251190   -0.921030       0.001503
siesta:  581    0.502380    0.334920   -0.837300       0.001503
siesta:  582    0.418650    0.418650   -0.753570       0.001503
siesta:  583    0.334920    0.502380   -0.669840       0.001503
siesta:  584    0.251190    0.586110   -0.586110       0.001503
siesta:  585    0.167460    0.669840   -0.502380       0.001503
siesta:  586    0.083730    0.753570   -0.418650       0.001503
siesta:  587    0.000000    0.837300   -0.334920       0.001503
siesta:  588   -0.083730    0.921030   -0.251190       0.001503
siesta:  589   -0.167460    1.004760   -0.167460       0.001503
siesta:  590    0.753570    0.083730   -0.921030       0.001503
siesta:  591    0.669840    0.167460   -0.837300       0.001503
siesta:  592    0.586110    0.251190   -0.753570       0.001503
siesta:  593    0.502380    0.334920   -0.669840       0.001503
siesta:  594    0.418650    0.418650   -0.586110       0.001503
siesta:  595    0.334920    0.502380   -0.502380       0.001503
siesta:  596    0.251190    0.586110   -0.418650       0.001503
siesta:  597    0.167460    0.669840   -0.334920       0.001503
siesta:  598    0.083730    0.753570   -0.251190       0.001503
siesta:  599    0.000000    0.837300   -0.167460       0.001503
siesta:  600   -0.083730    0.921030   -0.083730       0.001503
siesta:  601    0.837300    0.000000   -0.837300       0.001503
siesta:  602    0.753570    0.083730   -0.753570       0.001503
siesta:  603    0.669840    0.167460   -0.669840       0.001503
siesta:  604    0.586110    0.251190   -0.586110       0.001503
siesta:  605    0.502380    0.334920   -0.502380       0.001503
siesta:  606    0.418650    0.418650   -0.418650       0.001503
siesta:  607    0.334920    0.502380   -0.334920       0.001503
siesta:  608    0.251190    0.586110   -0.251190       0.001503
siesta:  609    0.167460    0.669840   -0.167460       0.001503
siesta:  610    0.083730    0.753570   -0.083730       0.001503
siesta:  611    0.000000    0.837300    0.000000       0.001503
siesta:  612    0.921030   -0.083730   -0.753570       0.001503
siesta:  613    0.837300    0.000000   -0.669840       0.001503
siesta:  614    0.753570    0.083730   -0.586110       0.001503
siesta:  615    0.669840    0.167460   -0.502380       0.001503
siesta:  616    0.586110    0.251190   -0.418650       0.001503
siesta:  617    0.502380    0.334920   -0.334920       0.001503
siesta:  618    0.418650    0.418650   -0.251190       0.001503
siesta:  619    0.334920    0.502380   -0.167460       0.001503
siesta:  620    0.251190    0.586110   -0.083730       0.001503
siesta:  621    0.167460    0.669840    0.000000       0.001503
siesta:  622    0.083730    0.753570    0.083730       0.001503
siesta:  623    1.004760   -0.167460   -0.669840       0.001503
siesta:  624    0.921030   -0.083730   -0.586110       0.001503
siesta:  625    0.837300    0.000000   -0.502380       0.001503
siesta:  626    0.753570    0.083730   -0.418650       0.001503
siesta:  627    0.669840    0.167460   -0.334920       0.001503
siesta:  628    0.586110    0.251190   -0.251190       0.001503
siesta:  629    0.502380    0.334920   -0.167460       0.001503
siesta:  630    0.418650    0.418650   -0.083730       0.001503
siesta:  631    0.334920    0.502380    0.000000       0.001503
siesta:  632    0.251190    0.586110    0.083730       0.001503
siesta:  633    0.167460    0.669840    0.167460       0.001503
siesta:  634    1.088490   -0.251190   -0.586110       0.001503
siesta:  635    1.004760   -0.167460   -0.502380       0.001503
siesta:  636    0.921030   -0.083730   -0.418650       0.001503
siesta:  637    0.837300    0.000000   -0.334920       0.001503
siesta:  638    0.753570    0.083730   -0.251190       0.001503
siesta:  639    0.669840    0.167460   -0.167460       0.001503
siesta:  640    0.586110    0.251190   -0.083730       0.001503
siesta:  641    0.502380    0.334920    0.000000       0.001503
siesta:  642    0.418650    0.418650    0.083730       0.001503
siesta:  643    0.334920    0.502380    0.167460       0.001503
siesta:  644    0.251190    0.586110    0.251190       0.001503
siesta:  645    1.172220   -0.334920   -0.502380       0.001503
siesta:  646    1.088490   -0.251190   -0.418650       0.001503
siesta:  647    1.004760   -0.167460   -0.334920       0.001503
siesta:  648    0.921030   -0.083730   -0.251190       0.001503
siesta:  649    0.837300    0.000000   -0.167460       0.001503
siesta:  650    0.753570    0.083730   -0.083730       0.001503
siesta:  651    0.669840    0.167460    0.000000       0.001503
siesta:  652    0.586110    0.251190    0.083730       0.001503
siesta:  653    0.502380    0.334920    0.167460       0.001503
siesta:  654    0.418650    0.418650    0.251190       0.001503
siesta:  655    0.334920    0.502380    0.334920       0.001503
siesta:  656    1.255950   -0.418650   -0.418650       0.001503
siesta:  657    1.172220   -0.334920   -0.334920       0.001503
siesta:  658    1.088490   -0.251190   -0.251190       0.001503
siesta:  659    1.004760   -0.167460   -0.167460       0.001503
siesta:  660    0.921030   -0.083730   -0.083730       0.001503
siesta:  661    0.837300    0.000000    0.000000       0.001503
siesta:  662    0.753570    0.083730    0.083730       0.001503
siesta:  663    0.669840    0.167460    0.167460       0.001503
siesta:  664    0.586110    0.251190    0.251190       0.001503
siesta:  665    0.502380    0.334920    0.334920       0.001503
siesta:  666    0.418650    0.418650    0.418650       0.001503

siesta: k-grid: Number of k-points =   666
siesta: k-grid: Cutoff (effective) =    14.040 Ang
siesta: k-grid: Supercell and displacements
siesta: k-grid:   11   0   0      0.000
siesta: k-grid:    0  11   0      0.000
siesta: k-grid:    0   0  11      0.000
 Kpoints in:           66 . Kpoints trimmed:           61

transiesta: ts_k-point coordinates (Bohr**-1) and weights:
transiesta:    1    0.418650   -0.418650   -0.418650       0.016529
transiesta:    2    0.334920   -0.334920   -0.334920       0.016529
transiesta:    3    0.251190   -0.251190   -0.251190       0.016529
transiesta:    4    0.167460   -0.167460   -0.167460       0.016529
transiesta:    5    0.083730   -0.083730   -0.083730       0.016529
transiesta:    6    0.000000    0.000000    0.000000       0.008264
transiesta:    7    0.502380   -0.502380   -0.334920       0.016529
transiesta:    8    0.418650   -0.418650   -0.251190       0.016529
transiesta:    9    0.334920   -0.334920   -0.167460       0.016529
transiesta:   10    0.251190   -0.251190   -0.083730       0.016529
transiesta:   11    0.167460   -0.167460    0.000000       0.016529
transiesta:   12    0.083730   -0.083730    0.083730       0.016529
transiesta:   13    0.000000    0.000000    0.167460       0.016529
transiesta:   14   -0.083730    0.083730    0.251190       0.016529
transiesta:   15   -0.167460    0.167460    0.334920       0.016529
transiesta:   16   -0.251190    0.251190    0.418650       0.016529
transiesta:   17   -0.334920    0.334920    0.502380       0.016529
transiesta:   18    0.586110   -0.586110   -0.251190       0.016529
transiesta:   19    0.502380   -0.502380   -0.167460       0.016529
transiesta:   20    0.418650   -0.418650   -0.083730       0.016529
transiesta:   21    0.334920   -0.334920    0.000000       0.016529
transiesta:   22    0.251190   -0.251190    0.083730       0.016529
transiesta:   23    0.167460   -0.167460    0.167460       0.016529
transiesta:   24    0.083730   -0.083730    0.251190       0.016529
transiesta:   25    0.000000    0.000000    0.334920       0.016529
transiesta:   26   -0.083730    0.083730    0.418650       0.016529
transiesta:   27   -0.167460    0.167460    0.502380       0.016529
transiesta:   28   -0.251190    0.251190    0.586110       0.016529
transiesta:   29    0.669840   -0.669840   -0.167460       0.016529
transiesta:   30    0.586110   -0.586110   -0.083730       0.016529
transiesta:   31    0.502380   -0.502380    0.000000       0.016529
transiesta:   32    0.418650   -0.418650    0.083730       0.016529
transiesta:   33    0.334920   -0.334920    0.167460       0.016529
transiesta:   34    0.251190   -0.251190    0.251190       0.016529
transiesta:   35    0.167460   -0.167460    0.334920       0.016529
transiesta:   36    0.083730   -0.083730    0.418650       0.016529
transiesta:   37    0.000000    0.000000    0.502380       0.016529
transiesta:   38   -0.083730    0.083730    0.586110       0.016529
transiesta:   39   -0.167460    0.167460    0.669840       0.016529
transiesta:   40    0.753570   -0.753570   -0.083730       0.016529
transiesta:   41    0.669840   -0.669840    0.000000       0.016529
transiesta:   42    0.586110   -0.586110    0.083730       0.016529
transiesta:   43    0.502380   -0.502380    0.167460       0.016529
transiesta:   44    0.418650   -0.418650    0.251190       0.016529
transiesta:   45    0.334920   -0.334920    0.334920       0.016529
transiesta:   46    0.251190   -0.251190    0.418650       0.016529
transiesta:   47    0.167460   -0.167460    0.502380       0.016529
transiesta:   48    0.083730   -0.083730    0.586110       0.016529
transiesta:   49    0.000000    0.000000    0.669840       0.016529
transiesta:   50   -0.083730    0.083730    0.753570       0.016529
transiesta:   51    0.837300   -0.837300    0.000000       0.016529
transiesta:   52    0.753570   -0.753570    0.083730       0.016529
transiesta:   53    0.669840   -0.669840    0.167460       0.016529
transiesta:   54    0.586110   -0.586110    0.251190       0.016529
transiesta:   55    0.502380   -0.502380    0.334920       0.016529
transiesta:   56    0.418650   -0.418650    0.418650       0.016529
transiesta:   57    0.334920   -0.334920    0.502380       0.016529
transiesta:   58    0.251190   -0.251190    0.586110       0.016529
transiesta:   59    0.167460   -0.167460    0.669840       0.016529
transiesta:   60    0.083730   -0.083730    0.753570       0.016529
transiesta:   61    0.000000    0.000000    0.837300       0.016529

transiesta: ts_k-grid: Number of Transport k-points =    61
transiesta: ts_k-grid: Supercell and displacements
transiesta: ts_k-grid:   11   0   0      0.000
transiesta: ts_k-grid:    0  11   0      0.000
 
Naive supercell factors:     9    9    9

superc: Internal auxiliary supercell:     9 x     9 x     9  =     729
superc: Number of atoms, orbitals, and projectors:    729  10935  11664

* Maximum dynamic memory allocated =     1 MB

siesta:                 ==============================
                            Begin CG move =      0
                        ==============================

outcoor: Atomic coordinates (Ang):                          
    0.00000000    0.00000000    0.00000000   1       1  Cu

superc: Internal auxiliary supercell:     9 x     9 x     9  =     729
superc: Number of atoms, orbitals, and projectors:    729  10935  11664

outcell: Unit cell vectors (Ang):
        0.000000    1.805000    1.805000
        1.805000    0.000000    1.805000
        1.805000    1.805000    0.000000

outcell: Cell vector modules (Ang)   :    2.552655    2.552655    2.552655
outcell: Cell angles (23,13,12) (deg):     60.0000     60.0000     60.0000
outcell: Cell volume (Ang**3)        :     11.7615
New_DM. Step:     1
Initializing Density Matrix...

InitMesh: MESH =    30 x    30 x    30 =       27000
InitMesh: Mesh cutoff (required, used) =   400.000   572.600 Ry

* Maximum dynamic memory allocated =    46 MB

stepf: Fermi-Dirac step function

siesta: Program's energy decomposition (eV):
siesta: Eions   =      1088.006016
siesta: Ena     =        42.367978
siesta: Ekin    =      1412.246777
siesta: Enl     =     -1359.541396
siesta: DEna    =         0.000001
siesta: DUscf   =         0.000000
siesta: DUext   =         0.000000
siesta: Exc     =      -204.102061
siesta: eta*DQ  =         0.000000
siesta: Emadel  =         0.000000
siesta: Emeta   =         0.000000
siesta: Emolmec =         0.000000
siesta: Ekinion =         0.000000
siesta: Eharris =     -1201.530877
siesta: Etot    =     -1197.034718
siesta: FreeEng =     -1197.034718

siesta: iscf   Eharris(eV)      E_KS(eV)   FreeEng(eV)   dDmax  Ef(eV)
siesta:    1    -1201.5309    -1197.0347    -1197.0347  1.6369  0.0559
timer: Routine,Calls,Time,% =    IterSCF     1      14.255  95.16
siesta:    2    -1205.3509    -1194.5840    -1194.5851  1.3438 -4.2902
siesta:    3    -1199.1969    -1197.5183    -1197.5195  0.7657 -2.9972
siesta:    4    -1199.1358    -1197.5793    -1197.5795  0.7254 -2.9428
siesta:    5    -1199.0766    -1198.5810    -1198.5811  0.2720 -2.8986
siesta:    6    -1199.0032    -1199.0068    -1199.0069  0.0037 -2.6406
siesta:    7    -1199.0031    -1199.0068    -1199.0073  0.0037 -2.6407
siesta:    8    -1199.0032    -1199.0025    -1199.0030  0.0002 -2.6471
siesta:    9    -1199.0032    -1199.0025    -1199.0030  0.0002 -2.6471
siesta:   10    -1199.0032    -1199.0026    -1199.0030  0.0001 -2.6470
siesta:   11    -1199.0032    -1199.0027    -1199.0031  0.0001 -2.6470
siesta:   12    -1199.0032    -1199.0027    -1199.0031  0.0001 -2.6470

siesta: E_KS(eV) =            -1199.0027

siesta: E_KS - E_eggbox =     -1199.0027

siesta: Atomic forces (eV/Ang):
     1    0.000004    0.000008   -0.000007
----------------------------------------
   Tot    0.000004    0.000008   -0.000007
----------------------------------------
   Max    0.000008
   Res    0.000007    sqrt( Sum f_i^2 / 3N )
----------------------------------------
   Max    0.000008    constrained

Stress-tensor-Voigt (kbar):     -112.81     -112.81     -112.81        0.25        0.25        0.25
(Free)E + p*V (eV/cell)    -1198.1751
Target enthalpy (eV/cell)    -1199.0032
 
mulliken: Atomic and Orbital Populations:

Species: Cu                  
Atom  Qatom  Qorb
               4s      4s      3dxy    3dyz    3dz2    3dxz    3dx2-y2 3dxy    
               3dyz    3dz2    3dxz    3dx2-y2 4Ppy    4Ppz    4Ppx    
   1 11.000  -0.407   0.954   1.820   1.820   1.852   1.820   1.852   0.061
              0.061   0.067   0.061   0.067   0.324   0.324   0.324

mulliken: Qtot =       11.000

* Maximum dynamic memory allocated =    46 MB

siesta: Eigenvalues (eV):
  ik is    eps
   1  1  -7.70  -7.18  -4.40  -4.24  -4.24  -2.02   6.07  10.92  10.92  28.38
         40.61  68.86  74.80  74.80  80.02
   2  1  -7.64  -7.06  -4.80  -4.60  -4.30  -2.58   8.86   9.81  11.91  30.62
         41.45  65.57  71.42  73.05  82.32
   3  1  -7.53  -6.81  -5.62  -5.01  -4.31  -2.72   7.28  13.92  14.93  32.83
         45.30  57.68  66.22  71.58 101.66
   4  1  -7.65  -6.39  -5.89  -5.44  -4.33  -3.03   4.88  16.61  20.32  33.69
         48.96  50.95  57.33  70.18 109.53
   5  1  -7.91  -5.95  -5.74  -5.45  -4.36  -3.59   3.08  19.38  20.91  36.28
         40.04  42.18  63.28  68.84  97.93
   6  1  -7.97  -5.86  -5.86  -4.38  -4.37  -4.32   1.99  21.07  21.07  34.42
         38.87  38.87  67.88  67.88  98.91
   7  1  -7.76  -5.97  -5.78  -5.17  -4.38  -2.90   1.52  19.52  20.26  35.61
         40.37  40.85  67.53  67.65 103.37
   8  1  -7.37  -6.29  -5.75  -5.51  -4.38  -1.35   1.76  17.14  17.61  34.03
         46.29  52.10  63.30  67.90 112.49
   9  1  -7.11  -6.74  -5.79  -5.12  -4.35  -0.39   3.26  10.77  14.72  34.23
         54.17  54.99  65.09  68.93  82.72
  10  1  -7.35  -7.00  -5.23  -4.71  -4.30  -0.23   5.93   6.64  12.42  32.80
         47.72  63.74  69.38  70.74  74.21
  11  1  -7.60  -7.16  -4.54  -4.46  -4.22  -0.86   5.24   9.01  11.09  29.96
         42.58  68.28  73.83  74.35  75.87
  12  1  -7.64  -7.06  -4.80  -4.60  -4.30  -2.58   8.86   9.81  11.91  30.62
         41.45  65.57  71.42  73.05  82.32
  13  1  -7.93  -6.98  -4.56  -4.56  -4.50  -4.24  12.57  12.57  14.66  29.72
         36.43  65.68  70.82  70.82 100.88
  14  1  -8.26  -6.78  -5.44  -4.94  -4.48  -4.30  12.10  14.26  21.77  31.92
         36.16  60.26  66.01  69.03  98.25
  15  1  -8.60  -6.49  -5.82  -5.34  -4.48  -4.34   9.90  16.72  21.93  35.30
         45.48  52.10  54.65  67.63  82.08
  16  1  -8.75  -6.05  -5.81  -5.65  -4.51  -4.49   7.62  19.48  22.44  38.49
         41.29  45.04  56.06  65.57  81.42
  17  1  -8.57  -5.79  -5.79  -5.57  -4.56  -4.56   5.73  21.73  21.73  36.12
         40.55  40.55  63.41  63.41  85.57
  18  1  -8.09  -5.88  -5.74  -5.62  -4.61  -3.81   4.39  18.80  21.99  36.53
         40.17  43.06  61.82  67.36  92.57
  19  1  -7.46  -6.16  -5.91  -5.52  -4.62  -2.29   3.60  15.19  19.77  35.19
         44.75  52.77  61.20  66.75 104.65
  20  1  -6.95  -6.57  -6.02  -5.20  -4.58  -0.18   3.23   9.11  16.70  35.56
         52.84  60.74  61.74  63.87  79.67
  21  1  -7.01  -6.86  -5.70  -4.90  -4.45   2.23   2.56   6.11  14.08  34.77
         55.15  60.75  64.59  68.09  69.40
  22  1  -7.35  -7.00  -5.23  -4.71  -4.30  -0.23   5.93   6.64  12.42  32.80
         47.72  63.74  69.38  70.74  74.21
  23  1  -7.53  -6.81  -5.62  -5.01  -4.31  -2.72   7.28  13.92  14.93  32.83
         45.30  57.68  66.22  71.58 101.66
  24  1  -8.26  -6.78  -5.44  -4.94  -4.48  -4.30  12.10  14.26  21.77  31.92
         36.16  60.26  66.01  69.03  98.25
  25  1  -9.17  -6.63  -5.41  -5.02  -5.02  -4.65  15.63  15.63  21.47  32.36
         37.22  61.31  63.22  63.22  73.29
  26  1  -9.87  -6.41  -5.59  -5.32  -5.04  -4.69  15.43  17.83  22.63  35.86
         42.07  54.70  55.16  62.00  67.83
  27  1 -10.14  -6.18  -5.66  -5.58  -4.98  -4.74  13.42  20.46  24.02  40.41
         44.40  47.91  49.96  60.01  68.35
  28  1  -9.90  -6.04  -5.69  -5.69  -4.83  -4.83  11.30  22.91  22.91  40.01
         43.15  43.15  57.10  57.10  71.28
  29  1  -9.19  -6.11  -5.75  -5.63  -4.92  -4.40   9.52  18.88  24.04  39.61
         41.59  45.84  54.44  62.93  76.35
  30  1  -8.15  -6.26  -5.94  -5.45  -4.97  -3.57   8.28  14.63  22.62  36.95
         44.69  52.92  53.43  66.10  88.85
  31  1  -7.23  -6.29  -6.24  -5.28  -4.86  -2.22   6.81   9.77  19.62  35.95
         50.64  53.96  59.86  65.52  93.69
  32  1  -6.95  -6.57  -6.02  -5.20  -4.58  -0.18   3.23   9.11  16.70  35.56
         52.84  60.74  61.74  63.87  79.67
  33  1  -7.11  -6.74  -5.79  -5.12  -4.35  -0.39   3.26  10.77  14.72  34.23
         54.17  54.99  65.09  68.93  82.72
  34  1  -7.65  -6.39  -5.89  -5.44  -4.33  -3.03   4.88  16.61  20.32  33.69
         48.96  50.95  57.33  70.18 109.53
  35  1  -8.60  -6.49  -5.82  -5.34  -4.48  -4.34   9.90  16.72  21.93  35.30
         45.48  52.10  54.65  67.63  82.08
  36  1  -9.87  -6.41  -5.59  -5.32  -5.04  -4.69  15.43  17.83  22.63  35.86
         42.07  54.70  55.16  62.00  67.83
  37  1 -10.86  -6.24  -5.45  -5.45  -5.34  -4.82  19.78  19.78  23.45  35.89
         44.53  53.59  53.59  57.61  60.12
  38  1 -11.33  -6.07  -5.62  -5.62  -5.17  -4.89  19.55  22.22  25.41  39.61
         46.54  48.23  48.90  56.06  59.02
  39  1 -11.24  -6.01  -5.68  -5.67  -5.00  -5.00  17.54  24.54  24.54  43.01
         44.33  44.33  53.02  53.02  60.78
  40  1 -10.58  -6.12  -5.65  -5.57  -5.15  -4.75  15.53  19.87  25.84  43.29
         43.52  47.11  49.29  57.13  65.43
  41  1  -9.45  -6.27  -5.75  -5.32  -5.32  -4.30  13.35  15.22  25.09  40.82
         46.25  46.28  51.83  61.28  72.52
  42  1  -8.15  -6.26  -5.94  -5.45  -4.97  -3.57   8.28  14.63  22.62  36.95
         44.69  52.92  53.43  66.10  88.85
  43  1  -7.46  -6.16  -5.91  -5.52  -4.62  -2.29   3.60  15.19  19.77  35.19
         44.75  52.77  61.20  66.75 104.65
  44  1  -7.37  -6.29  -5.75  -5.51  -4.38  -1.35   1.76  17.14  17.61  34.03
         46.29  52.10  63.30  67.90 112.49
  45  1  -7.91  -5.95  -5.74  -5.45  -4.36  -3.59   3.08  19.38  20.91  36.28
         40.04  42.18  63.28  68.84  97.93
  46  1  -8.75  -6.05  -5.81  -5.65  -4.51  -4.49   7.62  19.48  22.44  38.49
         41.29  45.04  56.06  65.57  81.42
  47  1 -10.14  -6.18  -5.66  -5.58  -4.98  -4.74  13.42  20.46  24.02  40.41
         44.40  47.91  49.96  60.01  68.35
  48  1 -11.33  -6.07  -5.62  -5.62  -5.17  -4.89  19.55  22.22  25.41  39.61
         46.54  48.23  48.90  56.06  59.02
  49  1 -12.01  -5.94  -5.73  -5.73  -5.09  -4.94  24.47  24.47  26.06  39.22
         44.84  44.84  51.38  53.65  55.31
  50  1 -12.11  -5.88  -5.77  -5.77  -5.00  -5.00  23.78  26.36  26.36  42.06
         42.07  42.61  53.39  53.67  53.67
  51  1 -11.62  -5.98  -5.69  -5.68  -5.11  -4.93  21.54  21.87  26.86  41.99
         44.72  44.86  50.62  54.63  57.51
  52  1 -10.58  -6.12  -5.65  -5.57  -5.15  -4.75  15.53  19.87  25.84  43.29
         43.52  47.11  49.29  57.13  65.43
  53  1  -9.19  -6.11  -5.75  -5.63  -4.92  -4.40   9.52  18.88  24.04  39.61
         41.59  45.84  54.44  62.93  76.35
  54  1  -8.09  -5.88  -5.74  -5.62  -4.61  -3.81   4.39  18.80  21.99  36.53
         40.17  43.06  61.82  67.36  92.57
  55  1  -7.76  -5.97  -5.78  -5.17  -4.38  -2.90   1.52  19.52  20.26  35.61
         40.37  40.85  67.53  67.65 103.37
  56  1  -7.97  -5.86  -5.86  -4.38  -4.37  -4.32   1.99  21.07  21.07  34.42
         38.87  38.87  67.88  67.88  98.91
  57  1  -8.57  -5.79  -5.79  -5.57  -4.56  -4.56   5.73  21.73  21.73  36.12
         40.55  40.55  63.41  63.41  85.57
  58  1  -9.90  -6.04  -5.69  -5.69  -4.83  -4.83  11.30  22.91  22.91  40.01
         43.15  43.15  57.10  57.10  71.28
  59  1 -11.24  -6.01  -5.68  -5.67  -5.00  -5.00  17.54  24.54  24.54  43.01
         44.33  44.33  53.02  53.02  60.78
  60  1 -12.11  -5.88  -5.77  -5.77  -5.00  -5.00  23.78  26.36  26.36  42.06
         42.07  42.61  53.39  53.67  53.67
  61  1 -12.41  -5.83  -5.83  -5.83  -4.98  -4.98  27.29  27.29  27.29  40.63
         40.64  40.64  51.12  54.55  54.55
  62  1  -7.60  -7.16  -4.54  -4.46  -4.22  -0.86   5.24   9.01  11.09  29.96
         42.58  68.28  73.83  74.35  75.87
  63  1  -7.51  -7.08  -4.93  -4.53  -4.24  -1.00   6.34   9.20   9.96  32.24
         43.78  65.32  71.03  74.77  75.79
  64  1  -7.28  -6.88  -5.62  -4.79  -4.34  -1.25   6.64   9.61  11.33  35.96
         47.58  58.42  68.48  71.46  78.79
  65  1  -7.20  -6.57  -5.99  -5.20  -4.39  -1.58   4.10  13.98  15.69  37.29
         49.00  53.86  63.32  69.63 101.85
  66  1  -7.52  -6.17  -5.72  -5.57  -4.42  -2.17   2.33  17.27  19.33  37.81
         40.31  49.68  63.17  68.30 110.25
  67  1  -7.76  -5.97  -5.78  -5.17  -4.38  -2.90   1.52  19.52  20.26  35.61
         40.37  40.85  67.53  67.65 103.37
  68  1  -7.76  -5.97  -5.78  -5.17  -4.38  -2.90   1.52  19.52  20.26  35.61
         40.37  40.85  67.53  67.65 103.37
  69  1  -7.52  -6.17  -5.72  -5.57  -4.42  -2.17   2.33  17.27  19.33  37.81
         40.31  49.67  63.17  68.30 110.25
  70  1  -7.20  -6.57  -5.99  -5.20  -4.39  -1.58   4.10  13.98  15.69  37.29
         49.00  53.86  63.32  69.63 101.85
  71  1  -7.28  -6.88  -5.62  -4.79  -4.34  -1.25   6.64   9.61  11.33  35.96
         47.58  58.42  68.48  71.46  78.79
  72  1  -7.51  -7.08  -4.93  -4.53  -4.24  -1.00   6.34   9.20   9.96  32.24
         43.78  65.32  71.03  74.77  75.79
  73  1  -7.51  -7.08  -4.93  -4.53  -4.24  -1.00   6.34   9.20   9.96  32.24
         43.78  65.32  71.03  74.77  75.79
  74  1  -7.64  -7.06  -4.81  -4.60  -4.30  -2.58   8.86   9.81  11.91  30.62
         41.45  65.56  71.42  73.05  82.32
  75  1  -7.70  -6.89  -5.41  -4.60  -4.56  -3.21  10.68  11.61  14.50  33.62
         40.18  60.50  70.24  70.43  97.78
  76  1  -7.79  -6.63  -5.93  -5.08  -4.58  -3.38   8.67  13.63  20.96  36.47
         44.99  51.34  63.86  69.31 111.79
  77  1  -8.01  -6.21  -5.96  -5.50  -4.62  -3.58   6.30  16.49  21.71  38.71
         41.44  50.41  56.26  68.04  93.65
  78  1  -8.09  -5.88  -5.74  -5.62  -4.61  -3.81   4.39  18.80  21.99  36.53
         40.17  43.06  61.82  67.36  92.57
  79  1  -7.91  -5.95  -5.74  -5.45  -4.35  -3.59   3.08  19.38  20.91  36.28
         40.04  42.17  63.28  68.84  97.93
  80  1  -7.52  -6.17  -5.72  -5.57  -4.42  -2.17   2.33  17.27  19.33  37.81
         40.31  49.67  63.17  68.30 110.25
  81  1  -7.04  -6.52  -5.99  -5.29  -4.44  -0.17   2.10  12.65  15.72  38.77
         46.88  58.93  61.77  67.31  92.65
  82  1  -6.96  -6.79  -5.89  -4.97  -4.37   1.43   3.02   7.60  12.54  37.98
         55.03  56.49  62.67  69.52  74.60
  83  1  -7.28  -6.96  -5.38  -4.72  -4.24   0.83   5.62   6.00  10.56  35.50
         48.68  62.82  65.48  73.38  74.28
  84  1  -7.28  -6.88  -5.62  -4.79  -4.34  -1.25   6.64   9.61  11.33  35.96
         47.58  58.42  68.48  71.46  78.79
  85  1  -7.70  -6.89  -5.41  -4.60  -4.56  -3.21  10.68  11.61  14.50  33.62
         40.18  60.50  70.24  70.43  97.78
  86  1  -8.26  -6.78  -5.44  -4.93  -4.48  -4.30  12.10  14.26  21.77  31.92
         36.16  60.26  66.01  69.03  98.25
  87  1  -8.85  -6.57  -5.73  -5.02  -4.95  -4.34  13.49  14.48  22.25  36.26
         39.86  53.32  62.36  65.24  78.08
  88  1  -9.22  -6.33  -5.79  -5.40  -5.00  -4.33  11.75  16.57  23.58  40.31
         44.14  47.09  53.90  63.60  74.46
  89  1  -9.19  -6.11  -5.75  -5.63  -4.92  -4.40   9.52  18.88  24.04  39.61
         41.59  45.84  54.44  62.93  76.35
  90  1  -8.75  -6.05  -5.81  -5.65  -4.51  -4.49   7.62  19.48  22.44  38.49
         41.29  45.04  56.06  65.57  81.42
  91  1  -8.01  -6.21  -5.96  -5.50  -4.62  -3.58   6.30  16.49  21.71  38.71
         41.44  50.41  56.26  68.04  93.65
  92  1  -7.23  -6.38  -6.21  -5.24  -4.68  -2.11   5.52  11.62  18.94  40.13
         45.53  53.49  62.41  67.05 100.06
  93  1  -6.79  -6.63  -6.21  -5.09  -4.55   0.00   4.54   7.33  15.04  39.73
         54.10  55.02  62.16  68.08  74.96
  94  1  -6.96  -6.79  -5.89  -4.97  -4.37   1.43   3.02   7.60  12.54  37.98
         55.03  56.49  62.67  69.52  74.60
  95  1  -7.20  -6.57  -5.99  -5.20  -4.39  -1.58   4.10  13.98  15.69  37.29
         49.00  53.86  63.32  69.63 101.85
  96  1  -7.79  -6.63  -5.93  -5.08  -4.58  -3.38   8.67  13.63  20.96  36.47
         44.99  51.34  63.86  69.31 111.79
  97  1  -8.85  -6.57  -5.73  -5.02  -4.95  -4.34  13.49  14.48  22.25  36.26
         39.86  53.32  62.36  65.24  78.08
  98  1  -9.87  -6.41  -5.59  -5.32  -5.05  -4.69  15.43  17.83  22.63  35.86
         42.07  54.70  55.16  62.00  67.83
  99  1 -10.49  -6.23  -5.62  -5.44  -5.22  -4.72  17.41  17.78  24.93  39.69
         45.11  47.95  52.51  58.08  65.08
 100  1 -10.58  -6.12  -5.65  -5.57  -5.15  -4.75  15.53  19.87  25.84  43.29
         43.52  47.11  49.29  57.13  65.43
 101  1 -10.14  -6.18  -5.66  -5.57  -4.98  -4.74  13.42  20.46  24.02  40.41
         44.40  47.91  49.95  60.01  68.35
 102  1  -9.22  -6.33  -5.79  -5.40  -5.00  -4.33  11.75  16.57  23.58  40.31
         44.14  47.09  53.90  63.60  74.46
 103  1  -8.05  -6.44  -6.02  -5.18  -5.00  -3.52   9.90  12.70  22.29  41.38
         45.02  45.89  60.34  66.42  94.19
 104  1  -7.23  -6.38  -6.21  -5.24  -4.68  -2.11   5.52  11.62  18.94  40.13
         45.53  53.49  62.41  67.05 100.06
 105  1  -7.04  -6.52  -5.99  -5.29  -4.44  -0.17   2.10  12.65  15.72  38.77
         46.88  58.93  61.77  67.31  92.65
 106  1  -7.52  -6.17  -5.72  -5.57  -4.42  -2.17   2.33  17.27  19.33  37.81
         40.31  49.68  63.17  68.30 110.25
 107  1  -8.01  -6.21  -5.96  -5.50  -4.62  -3.58   6.30  16.49  21.71  38.71
         41.44  50.41  56.26  68.04  93.65
 108  1  -9.22  -6.33  -5.79  -5.40  -5.00  -4.33  11.75  16.57  23.58  40.31
         44.14  47.09  53.90  63.60  74.46
 109  1 -10.49  -6.23  -5.62  -5.44  -5.22  -4.72  17.41  17.78  24.93  39.69
         45.11  47.95  52.51  58.08  65.08
 110  1 -11.33  -6.07  -5.63  -5.61  -5.17  -4.89  19.55  22.22  25.41  39.61
         46.54  48.23  48.90  56.06  59.02
 111  1 -11.62  -5.98  -5.69  -5.68  -5.11  -4.93  21.54  21.87  26.86  41.99
         44.72  44.86  50.62  54.63  57.51
 112  1 -11.33  -6.07  -5.63  -5.61  -5.17  -4.89  19.55  22.22  25.41  39.61
         46.54  48.23  48.90  56.06  59.02
 113  1 -10.49  -6.23  -5.62  -5.44  -5.22  -4.72  17.41  17.78  24.93  39.69
         45.11  47.95  52.51  58.08  65.08
 114  1  -9.22  -6.33  -5.79  -5.40  -5.00  -4.33  11.75  16.57  23.58  40.31
         44.14  47.09  53.90  63.60  74.46
 115  1  -8.01  -6.21  -5.96  -5.50  -4.62  -3.58   6.30  16.49  21.71  38.71
         41.44  50.41  56.26  68.04  93.65
 116  1  -7.52  -6.17  -5.72  -5.57  -4.42  -2.17   2.33  17.27  19.33  37.81
         40.31  49.68  63.17  68.30 110.25
 117  1  -7.76  -5.97  -5.78  -5.17  -4.38  -2.90   1.52  19.52  20.26  35.61
         40.37  40.85  67.53  67.65 103.37
 118  1  -8.09  -5.88  -5.74  -5.62  -4.61  -3.81   4.39  18.80  21.99  36.53
         40.17  43.06  61.82  67.36  92.57
 119  1  -9.19  -6.11  -5.75  -5.63  -4.92  -4.40   9.52  18.88  24.04  39.61
         41.59  45.84  54.44  62.93  76.35
 120  1 -10.58  -6.12  -5.65  -5.57  -5.15  -4.75  15.53  19.87  25.84  43.29
         43.52  47.11  49.29  57.13  65.43
 121  1 -11.62  -5.98  -5.69  -5.68  -5.11  -4.93  21.54  21.87  26.86  41.99
         44.72  44.86  50.62  54.63  57.51
 122  1 -12.11  -5.88  -5.77  -5.77  -5.00  -5.00  23.78  26.36  26.36  42.06
         42.07  42.61  53.39  53.67  53.67
 123  1 -12.01  -5.94  -5.73  -5.73  -5.09  -4.94  24.47  24.47  26.06  39.22
         44.84  44.84  51.38  53.65  55.31
 124  1 -11.33  -6.07  -5.62  -5.62  -5.17  -4.89  19.55  22.22  25.41  39.61
         46.54  48.23  48.90  56.06  59.02
 125  1 -10.14  -6.18  -5.66  -5.58  -4.98  -4.74  13.42  20.46  24.02  40.41
         44.40  47.91  49.96  60.01  68.35
 126  1  -8.75  -6.05  -5.81  -5.65  -4.51  -4.49   7.62  19.48  22.44  38.49
         41.29  45.04  56.06  65.57  81.42
 127  1  -7.91  -5.95  -5.74  -5.45  -4.36  -3.59   3.08  19.38  20.91  36.28
         40.04  42.18  63.28  68.84  97.93
 128  1  -7.76  -5.97  -5.78  -5.17  -4.38  -2.90   1.52  19.52  20.26  35.61
         40.37  40.85  67.53  67.65 103.37
 129  1  -7.91  -5.95  -5.74  -5.45  -4.35  -3.59   3.08  19.38  20.91  36.28
         40.04  42.17  63.28  68.84  97.93
 130  1  -8.75  -6.05  -5.81  -5.65  -4.51  -4.49   7.62  19.48  22.44  38.49
         41.29  45.04  56.06  65.57  81.42
 131  1 -10.14  -6.18  -5.66  -5.57  -4.98  -4.74  13.42  20.46  24.02  40.41
         44.40  47.91  49.95  60.01  68.35
 132  1 -11.33  -6.07  -5.63  -5.61  -5.17  -4.89  19.55  22.22  25.41  39.61
         46.54  48.23  48.90  56.06  59.02
 133  1 -12.01  -5.94  -5.73  -5.73  -5.09  -4.94  24.47  24.47  26.06  39.22
         44.84  44.84  51.38  53.65  55.31
 134  1 -12.11  -5.88  -5.77  -5.77  -5.00  -5.00  23.78  26.36  26.36  42.07
         42.07  42.62  53.39  53.67  53.67
 135  1 -11.62  -5.99  -5.69  -5.68  -5.11  -4.93  21.54  21.87  26.86  41.99
         44.72  44.86  50.62  54.63  57.51
 136  1 -10.58  -6.12  -5.66  -5.57  -5.15  -4.75  15.53  19.87  25.84  43.29
         43.52  47.11  49.29  57.13  65.43
 137  1  -9.19  -6.11  -5.75  -5.63  -4.92  -4.40   9.52  18.88  24.04  39.61
         41.59  45.84  54.44  62.93  76.35
 138  1  -8.09  -5.88  -5.74  -5.62  -4.61  -3.81   4.39  18.80  21.99  36.53
         40.17  43.06  61.82  67.35  92.57
 139  1  -7.52  -6.17  -5.72  -5.57  -4.42  -2.17   2.33  17.27  19.33  37.81
         40.31  49.67  63.17  68.30 110.25
 140  1  -7.52  -6.17  -5.72  -5.57  -4.42  -2.17   2.33  17.27  19.33  37.81
         40.31  49.67  63.17  68.30 110.25
[...]
         40.17  43.06  61.82  67.35  92.57
 535  1  -7.52  -6.17  -5.72  -5.57  -4.41  -2.17   2.33  17.27  19.33  37.81
         40.31  49.68  63.17  68.30 110.25
 536  1  -7.04  -6.52  -5.99  -5.29  -4.44  -0.17   2.10  12.65  15.72  38.77
         46.88  58.93  61.77  67.31  92.66
 537  1  -6.96  -6.79  -5.89  -4.97  -4.36   1.43   3.02   7.60  12.54  37.98
         55.03  56.49  62.67  69.52  74.60
 538  1  -7.28  -6.96  -5.38  -4.72  -4.24   0.83   5.62   6.00  10.56  35.50
         48.68  62.82  65.48  73.38  74.28
 539  1  -7.51  -7.08  -4.93  -4.53  -4.24  -1.00   6.34   9.20   9.96  32.24
         43.78  65.32  71.03  74.77  75.79
 540  1  -7.64  -7.06  -4.80  -4.60  -4.30  -2.58   8.86   9.81  11.91  30.62
         41.45  65.57  71.42  73.05  82.32
 541  1  -7.70  -6.89  -5.41  -4.60  -4.56  -3.21  10.67  11.61  14.50  33.62
         40.18  60.50  70.24  70.43  97.78
 542  1  -7.79  -6.63  -5.93  -5.08  -4.58  -3.38   8.67  13.63  20.96  36.47
         44.99  51.34  63.86  69.31 111.79
 543  1  -8.01  -6.21  -5.96  -5.50  -4.62  -3.58   6.29  16.49  21.71  38.71
         41.44  50.41  56.26  68.04  93.65
 544  1  -8.09  -5.88  -5.74  -5.62  -4.60  -3.81   4.39  18.80  21.99  36.53
         40.17  43.06  61.82  67.35  92.57
 545  1  -7.91  -5.95  -5.74  -5.45  -4.35  -3.59   3.08  19.38  20.91  36.28
         40.04  42.18  63.28  68.84  97.93
 546  1  -7.76  -5.97  -5.78  -5.17  -4.38  -2.89   1.52  19.52  20.26  35.61
         40.37  40.85  67.53  67.65 103.37
 547  1  -7.52  -6.17  -5.72  -5.57  -4.41  -2.17   2.33  17.27  19.33  37.81
         40.31  49.68  63.17  68.30 110.25
 548  1  -7.20  -6.57  -5.99  -5.20  -4.39  -1.58   4.10  13.98  15.69  37.29
         49.00  53.86  63.32  69.63 101.85
 549  1  -7.28  -6.88  -5.62  -4.79  -4.34  -1.25   6.64   9.61  11.33  35.96
         47.58  58.42  68.48  71.46  78.79
 550  1  -7.51  -7.08  -4.93  -4.53  -4.24  -1.00   6.34   9.20   9.96  32.24
         43.78  65.32  71.03  74.77  75.79
 551  1  -7.60  -7.16  -4.54  -4.46  -4.22  -0.86   5.24   9.01  11.09  29.96
         42.58  68.28  73.83  74.35  75.87
 552  1  -7.51  -7.08  -4.93  -4.53  -4.24  -1.00   6.34   9.20   9.96  32.24
         43.78  65.32  71.03  74.77  75.79
 553  1  -7.28  -6.88  -5.62  -4.79  -4.34  -1.25   6.64   9.61  11.33  35.96
         47.58  58.42  68.48  71.46  78.79
 554  1  -7.20  -6.57  -5.99  -5.20  -4.39  -1.58   4.10  13.98  15.69  37.29
         49.00  53.86  63.32  69.63 101.85
 555  1  -7.52  -6.17  -5.72  -5.57  -4.41  -2.17   2.33  17.27  19.33  37.81
         40.31  49.68  63.17  68.30 110.25
 556  1  -7.76  -5.97  -5.78  -5.17  -4.38  -2.89   1.52  19.52  20.26  35.61
         40.37  40.85  67.53  67.65 103.37
 557  1  -7.52  -6.17  -5.72  -5.57  -4.41  -2.17   2.33  17.27  19.33  37.81
         40.31  49.68  63.17  68.30 110.25
 558  1  -7.46  -6.16  -5.91  -5.52  -4.62  -2.29   3.60  15.19  19.77  35.19
         44.75  52.77  61.20  66.75 104.65
 559  1  -7.23  -6.38  -6.21  -5.24  -4.67  -2.11   5.52  11.62  18.94  40.13
         45.53  53.49  62.41  67.05 100.06
 560  1  -7.15  -6.64  -6.15  -4.91  -4.57  -1.81   7.45   9.42  14.72  42.60
         47.94  50.69  67.40  69.38  86.82
 561  1  -7.28  -6.88  -5.62  -4.79  -4.34  -1.25   6.64   9.61  11.33  35.96
         47.58  58.42  68.48  71.46  78.79
 562  1  -7.35  -7.00  -5.23  -4.71  -4.30  -0.23   5.93   6.64  12.42  32.80
         47.72  63.74  69.38  70.74  74.21
 563  1  -7.28  -6.96  -5.38  -4.72  -4.24   0.83   5.62   6.00  10.56  35.50
         48.68  62.82  65.48  73.38  74.28
 564  1  -7.09  -6.76  -5.85  -4.87  -4.24   0.94   6.15   7.08   8.30  41.23
         50.85  56.48  62.55  74.65  75.15
 565  1  -6.85  -6.60  -6.23  -5.04  -4.38   0.53   3.89   9.26  11.25  45.53
         47.97  55.40  62.19  70.45  77.24
 566  1  -7.04  -6.52  -5.99  -5.29  -4.44  -0.17   2.10  12.65  15.72  38.77
         46.88  58.93  61.77  67.31  92.66
 567  1  -7.37  -6.29  -5.75  -5.51  -4.38  -1.35   1.76  17.14  17.61  34.03
         46.29  52.10  63.30  67.90 112.49
 568  1  -7.20  -6.57  -5.99  -5.20  -4.39  -1.58   4.10  13.98  15.69  37.29
         49.00  53.86  63.32  69.63 101.85
 569  1  -7.23  -6.38  -6.21  -5.24  -4.67  -2.11   5.52  11.62  18.94  40.13
         45.53  53.49  62.41  67.05 100.06
 570  1  -7.23  -6.29  -6.24  -5.28  -4.85  -2.22   6.81   9.77  19.62  35.95
         50.64  53.96  59.86  65.52  93.69
 571  1  -7.23  -6.38  -6.21  -5.24  -4.67  -2.11   5.52  11.62  18.94  40.13
         45.53  53.49  62.41  67.05 100.06
 572  1  -7.20  -6.57  -5.99  -5.20  -4.39  -1.58   4.10  13.98  15.69  37.29
         49.00  53.86  63.32  69.63 101.85
 573  1  -7.11  -6.74  -5.79  -5.12  -4.35  -0.39   3.26  10.77  14.72  34.23
         54.17  54.99  65.09  68.93  82.72
 574  1  -6.96  -6.79  -5.89  -4.97  -4.37   1.43   3.02   7.60  12.54  37.98
         55.03  56.49  62.67  69.52  74.60
 575  1  -6.92  -6.54  -6.19  -5.01  -4.24   3.27   3.27   6.49   8.90  45.33
         53.06  55.87  56.76  74.47  75.09
 576  1  -6.92  -6.54  -6.19  -5.01  -4.24   3.27   3.27   6.49   8.90  45.34
         53.06  55.87  56.76  74.47  75.09
 577  1  -6.96  -6.79  -5.89  -4.97  -4.36   1.43   3.02   7.60  12.54  37.98
         55.03  56.49  62.67  69.52  74.60
 578  1  -7.11  -6.74  -5.79  -5.11  -4.35  -0.39   3.26  10.77  14.72  34.23
         54.17  54.99  65.09  68.93  82.72
 579  1  -7.28  -6.88  -5.62  -4.79  -4.34  -1.25   6.64   9.61  11.33  35.96
         47.58  58.42  68.48  71.46  78.79
 580  1  -7.15  -6.64  -6.15  -4.91  -4.57  -1.81   7.45   9.42  14.72  42.60
         47.94  50.69  67.40  69.38  86.82
 581  1  -7.23  -6.38  -6.21  -5.24  -4.67  -2.11   5.52  11.62  18.94  40.13
         45.53  53.49  62.41  67.05 100.06
 582  1  -7.46  -6.16  -5.91  -5.52  -4.62  -2.29   3.60  15.19  19.77  35.19
         44.75  52.77  61.20  66.75 104.65
 583  1  -7.52  -6.17  -5.72  -5.57  -4.42  -2.17   2.33  17.27  19.33  37.81
         40.31  49.67  63.17  68.30 110.25
 584  1  -7.37  -6.29  -5.75  -5.51  -4.38  -1.35   1.76  17.14  17.61  34.03
         46.29  52.10  63.30  67.90 112.49
 585  1  -7.04  -6.52  -5.99  -5.29  -4.44  -0.17   2.10  12.65  15.72  38.77
         46.88  58.93  61.77  67.31  92.65
 586  1  -6.85  -6.60  -6.23  -5.04  -4.38   0.53   3.89   9.26  11.25  45.53
         47.97  55.40  62.19  70.45  77.24
 587  1  -7.09  -6.76  -5.85  -4.87  -4.24   0.94   6.15   7.08   8.30  41.23
         50.85  56.48  62.55  74.65  75.15
 588  1  -7.28  -6.96  -5.38  -4.72  -4.24   0.83   5.62   6.00  10.56  35.50
         48.68  62.82  65.48  73.38  74.28
 589  1  -7.35  -7.00  -5.23  -4.71  -4.30  -0.23   5.93   6.64  12.42  32.80
         47.72  63.74  69.39  70.74  74.21
 590  1  -7.51  -7.08  -4.93  -4.53  -4.24  -1.00   6.34   9.20   9.96  32.24
         43.78  65.32  71.03  74.77  75.79
 591  1  -7.28  -6.88  -5.62  -4.79  -4.34  -1.25   6.64   9.61  11.33  35.96
         47.58  58.42  68.48  71.46  78.79
 592  1  -7.20  -6.57  -5.99  -5.20  -4.39  -1.58   4.10  13.98  15.69  37.29
         49.00  53.86  63.32  69.63 101.85
 593  1  -7.52  -6.17  -5.72  -5.57  -4.42  -2.17   2.33  17.27  19.33  37.81
         40.31  49.67  63.17  68.30 110.25
 594  1  -7.76  -5.97  -5.78  -5.17  -4.38  -2.90   1.52  19.52  20.26  35.61
         40.37  40.85  67.53  67.65 103.37
 595  1  -7.76  -5.97  -5.78  -5.17  -4.38  -2.90   1.52  19.52  20.26  35.61
         40.37  40.85  67.53  67.65 103.37
 596  1  -7.52  -6.17  -5.72  -5.57  -4.42  -2.17   2.33  17.27  19.33  37.81
         40.31  49.68  63.17  68.30 110.25
 597  1  -7.20  -6.57  -5.99  -5.20  -4.39  -1.58   4.10  13.98  15.69  37.29
         49.00  53.86  63.32  69.63 101.85
 598  1  -7.28  -6.88  -5.62  -4.79  -4.34  -1.25   6.64   9.61  11.33  35.96
         47.58  58.42  68.48  71.46  78.79
 599  1  -7.51  -7.08  -4.93  -4.53  -4.24  -1.00   6.34   9.20   9.96  32.24
         43.78  65.32  71.03  74.77  75.79
 600  1  -7.60  -7.16  -4.54  -4.46  -4.22  -0.86   5.24   9.01  11.09  29.96
         42.58  68.28  73.83  74.35  75.87
 601  1  -7.60  -7.16  -4.54  -4.46  -4.22  -0.86   5.24   9.01  11.09  29.96
         42.58  68.28  73.83  74.35  75.87
 602  1  -7.35  -7.00  -5.23  -4.71  -4.30  -0.23   5.93   6.64  12.42  32.80
         47.72  63.74  69.38  70.74  74.21
 603  1  -7.11  -6.74  -5.79  -5.12  -4.35  -0.39   3.26  10.77  14.72  34.23
         54.17  54.99  65.09  68.93  82.72
 604  1  -7.37  -6.29  -5.75  -5.51  -4.38  -1.35   1.76  17.14  17.61  34.03
         46.29  52.10  63.30  67.90 112.49
 605  1  -7.76  -5.97  -5.78  -5.17  -4.38  -2.90   1.52  19.52  20.26  35.61
         40.37  40.85  67.53  67.65 103.37
 606  1  -7.97  -5.86  -5.86  -4.38  -4.37  -4.32   1.99  21.07  21.07  34.42
         38.87  38.87  67.88  67.88  98.91
 607  1  -7.91  -5.95  -5.74  -5.45  -4.36  -3.59   3.08  19.38  20.91  36.28
         40.04  42.18  63.28  68.84  97.93
 608  1  -7.65  -6.39  -5.89  -5.44  -4.33  -3.03   4.88  16.61  20.32  33.69
         48.96  50.95  57.33  70.18 109.53
 609  1  -7.53  -6.81  -5.62  -5.01  -4.31  -2.72   7.28  13.92  14.93  32.83
         45.30  57.68  66.22  71.58 101.66
 610  1  -7.64  -7.06  -4.80  -4.60  -4.30  -2.58   8.86   9.81  11.91  30.62
         41.45  65.57  71.42  73.05  82.32
 611  1  -7.70  -7.18  -4.40  -4.24  -4.24  -2.02   6.07  10.92  10.92  28.38
         40.61  68.86  74.80  74.80  80.02
 612  1  -7.51  -7.08  -4.93  -4.53  -4.24  -1.00   6.34   9.20   9.96  32.24
         43.78  65.32  71.03  74.77  75.79
 613  1  -7.28  -6.96  -5.38  -4.72  -4.24   0.83   5.62   6.00  10.56  35.50
         48.68  62.82  65.48  73.38  74.28
 614  1  -6.96  -6.79  -5.89  -4.97  -4.37   1.43   3.02   7.60  12.54  37.98
         55.03  56.49  62.67  69.52  74.60
 615  1  -7.04  -6.52  -5.99  -5.29  -4.44  -0.17   2.10  12.65  15.72  38.77
         46.88  58.93  61.77  67.31  92.65
 616  1  -7.52  -6.17  -5.72  -5.57  -4.42  -2.17   2.33  17.27  19.33  37.81
         40.31  49.68  63.17  68.30 110.25
 617  1  -7.91  -5.95  -5.74  -5.45  -4.36  -3.59   3.08  19.38  20.91  36.28
         40.04  42.18  63.28  68.84  97.93
 618  1  -8.09  -5.88  -5.74  -5.62  -4.61  -3.81   4.39  18.80  21.99  36.53
         40.17  43.06  61.82  67.35  92.57
 619  1  -8.01  -6.21  -5.96  -5.50  -4.62  -3.58   6.29  16.49  21.71  38.71
         41.44  50.41  56.26  68.04  93.65
 620  1  -7.79  -6.63  -5.93  -5.08  -4.58  -3.38   8.67  13.63  20.96  36.47
         44.99  51.34  63.86  69.31 111.79
 621  1  -7.70  -6.89  -5.41  -4.60  -4.56  -3.21  10.67  11.61  14.50  33.62
         40.18  60.50  70.24  70.43  97.78
 622  1  -7.64  -7.06  -4.81  -4.60  -4.30  -2.58   8.86   9.81  11.91  30.62
         41.45  65.57  71.42  73.05  82.32
 623  1  -7.28  -6.88  -5.62  -4.79  -4.34  -1.25   6.64   9.61  11.33  35.96
         47.58  58.42  68.48  71.46  78.79
 624  1  -7.09  -6.76  -5.85  -4.87  -4.24   0.94   6.15   7.08   8.30  41.23
         50.85  56.48  62.55  74.65  75.15
 625  1  -6.92  -6.54  -6.19  -5.01  -4.24   3.27   3.27   6.49   8.90  45.33
         53.06  55.87  56.76  74.47  75.09
 626  1  -6.85  -6.60  -6.23  -5.04  -4.38   0.53   3.89   9.26  11.25  45.53
         47.97  55.40  62.19  70.45  77.24
 627  1  -7.20  -6.57  -5.99  -5.20  -4.39  -1.58   4.10  13.98  15.69  37.29
         49.00  53.86  63.32  69.63 101.85
 628  1  -7.65  -6.39  -5.89  -5.44  -4.33  -3.03   4.88  16.61  20.32  33.69
         48.96  50.95  57.33  70.18 109.53
 629  1  -8.01  -6.21  -5.96  -5.50  -4.62  -3.58   6.29  16.49  21.71  38.71
         41.44  50.41  56.26  68.04  93.65
 630  1  -8.15  -6.26  -5.94  -5.45  -4.97  -3.57   8.28  14.63  22.62  36.95
         44.68  52.92  53.43  66.10  88.85
 631  1  -8.05  -6.44  -6.02  -5.18  -5.00  -3.52   9.90  12.70  22.29  41.38
         45.02  45.89  60.34  66.42  94.19
 632  1  -7.79  -6.63  -5.93  -5.08  -4.58  -3.38   8.67  13.63  20.96  36.47
         44.99  51.34  63.86  69.31 111.79
 633  1  -7.53  -6.81  -5.62  -5.01  -4.31  -2.72   7.28  13.92  14.93  32.83
         45.30  57.68  66.22  71.58 101.66
 634  1  -7.20  -6.57  -5.99  -5.20  -4.39  -1.58   4.10  13.98  15.69  37.29
         49.00  53.86  63.32  69.63 101.85
 635  1  -6.85  -6.60  -6.23  -5.04  -4.38   0.53   3.89   9.26  11.25  45.53
         47.97  55.40  62.19  70.45  77.24
 636  1  -6.92  -6.54  -6.19  -5.01  -4.24   3.27   3.27   6.49   8.90  45.34
         53.06  55.87  56.76  74.47  75.09
 637  1  -7.09  -6.76  -5.85  -4.87  -4.24   0.94   6.15   7.08   8.30  41.23
         50.85  56.48  62.55  74.65  75.15
 638  1  -7.28  -6.88  -5.62  -4.79  -4.34  -1.25   6.64   9.61  11.33  35.96
         47.58  58.42  68.48  71.46  78.79
 639  1  -7.53  -6.81  -5.62  -5.01  -4.31  -2.72   7.28  13.92  14.93  32.83
         45.30  57.68  66.22  71.58 101.66
 640  1  -7.79  -6.63  -5.93  -5.08  -4.58  -3.38   8.67  13.63  20.96  36.47
         44.99  51.34  63.86  69.31 111.79
 641  1  -8.05  -6.44  -6.02  -5.18  -5.00  -3.52   9.90  12.70  22.29  41.38
         45.02  45.89  60.34  66.42  94.19
 642  1  -8.15  -6.26  -5.94  -5.45  -4.97  -3.57   8.28  14.63  22.62  36.95
         44.69  52.92  53.43  66.10  88.85
 643  1  -8.01  -6.21  -5.96  -5.50  -4.62  -3.58   6.29  16.49  21.71  38.71
         41.44  50.41  56.26  68.04  93.65
 644  1  -7.66  -6.39  -5.89  -5.44  -4.33  -3.03   4.88  16.61  20.32  33.70
         48.96  50.95  57.33  70.18 109.53
 645  1  -7.52  -6.17  -5.72  -5.57  -4.41  -2.17   2.33  17.27  19.33  37.81
         40.31  49.68  63.17  68.30 110.25
 646  1  -7.04  -6.52  -5.99  -5.29  -4.44  -0.17   2.10  12.65  15.72  38.77
         46.88  58.93  61.77  67.31  92.66
 647  1  -6.96  -6.79  -5.89  -4.97  -4.36   1.43   3.02   7.60  12.54  37.98
         55.03  56.49  62.67  69.52  74.60
 648  1  -7.28  -6.96  -5.38  -4.72  -4.24   0.83   5.62   6.00  10.56  35.50
         48.68  62.82  65.48  73.38  74.28
 649  1  -7.51  -7.08  -4.93  -4.53  -4.24  -1.00   6.34   9.20   9.96  32.24
         43.78  65.32  71.03  74.77  75.79
 650  1  -7.64  -7.06  -4.80  -4.60  -4.30  -2.58   8.86   9.81  11.91  30.62
         41.45  65.57  71.42  73.05  82.32
 651  1  -7.70  -6.89  -5.41  -4.60  -4.56  -3.21  10.67  11.61  14.50  33.62
         40.18  60.50  70.24  70.43  97.78
 652  1  -7.79  -6.63  -5.93  -5.08  -4.58  -3.38   8.67  13.63  20.96  36.47
         44.99  51.34  63.86  69.31 111.79
 653  1  -8.01  -6.21  -5.96  -5.50  -4.62  -3.58   6.29  16.49  21.71  38.71
         41.44  50.41  56.26  68.04  93.65
 654  1  -8.09  -5.88  -5.74  -5.62  -4.60  -3.81   4.39  18.80  21.99  36.53
         40.17  43.06  61.82  67.35  92.57
 655  1  -7.91  -5.95  -5.74  -5.45  -4.35  -3.59   3.08  19.38  20.91  36.28
         40.04  42.18  63.28  68.84  97.93
 656  1  -7.76  -5.97  -5.78  -5.17  -4.38  -2.89   1.52  19.52  20.26  35.61
         40.37  40.85  67.53  67.65 103.37
 657  1  -7.37  -6.29  -5.75  -5.51  -4.38  -1.35   1.76  17.14  17.61  34.03
         46.29  52.10  63.30  67.90 112.49
 658  1  -7.11  -6.74  -5.79  -5.11  -4.35  -0.39   3.26  10.77  14.72  34.23
         54.17  54.99  65.09  68.93  82.72
 659  1  -7.35  -7.00  -5.23  -4.71  -4.30  -0.23   5.93   6.64  12.42  32.80
         47.72  63.74  69.39  70.74  74.21
 660  1  -7.60  -7.16  -4.54  -4.46  -4.22  -0.86   5.24   9.01  11.09  29.96
         42.58  68.28  73.83  74.35  75.87
 661  1  -7.70  -7.18  -4.40  -4.24  -4.24  -2.02   6.07  10.92  10.92  28.38
         40.61  68.86  74.80  74.80  80.02
 662  1  -7.64  -7.06  -4.81  -4.60  -4.30  -2.58   8.86   9.81  11.91  30.62
         41.45  65.57  71.42  73.05  82.32
 663  1  -7.53  -6.81  -5.62  -5.01  -4.31  -2.72   7.28  13.92  14.93  32.83
         45.30  57.68  66.22  71.58 101.66
 664  1  -7.66  -6.39  -5.89  -5.44  -4.33  -3.03   4.88  16.61  20.32  33.70
         48.96  50.95  57.33  70.18 109.53
 665  1  -7.91  -5.95  -5.74  -5.45  -4.35  -3.59   3.08  19.38  20.91  36.28
         40.04  42.18  63.28  68.84  97.93
 666  1  -7.97  -5.86  -5.86  -4.37  -4.37  -4.32   1.99  21.07  21.07  34.42
         38.87  38.87  67.88  67.88  98.91
siesta: Fermi energy =      -2.646959 eV

siesta: Program's energy decomposition (eV):
siesta: Eions   =      1088.006016
siesta: Ena     =        42.367978
siesta: Ekin    =      1342.966723
siesta: Enl     =     -1289.694714
siesta: DEna    =       -11.619478
siesta: DUscf   =         1.235718
siesta: DUext   =         0.000000
siesta: Exc     =      -196.252958
siesta: eta*DQ  =         0.000000
siesta: Emadel  =         0.000000
siesta: Emeta   =         0.000000
siesta: Emolmec =         0.000000
siesta: Ekinion =         0.000000
siesta: Eharris =     -1199.003155
siesta: Etot    =     -1199.002747
siesta: FreeEng =     -1199.003187

siesta: Final energy (eV):
siesta:       Kinetic =    1342.966723
siesta:       Hartree =     274.423077
siesta:    Ext. field =       0.000000
siesta:   Exch.-corr. =    -196.252958
siesta:  Ion-electron =   -1701.286720
siesta:       Ion-ion =    -918.852869
siesta:       Ekinion =       0.000000
siesta:         Total =   -1199.002747

siesta: Stress tensor (static) (eV/Ang**3):
siesta:    -0.070407    0.000156    0.000157
siesta:     0.000156   -0.070407    0.000157
siesta:     0.000157    0.000157   -0.070407

siesta: Cell volume =         11.761470 Ang**3

siesta: Pressure (static):
siesta:                Solid            Molecule  Units
siesta:           0.00076682          0.00076682  Ry/Bohr**3
siesta:           0.07040701          0.07040701  eV/Ang**3
siesta:         112.80568031        112.80568031  kBar
(Free)E+ p_basis*V_orbitals  =       -1198.217863
(Free)Eharris+ p_basis*V_orbitals  =       -1198.218309

* Maximum dynamic memory allocated : Node    0 =    46 MB

* Maximum memory occured during grdsam                        

timer: Elapsed wall time (sec) =      78.814
timer: CPU execution times (sec):

Routine            Calls   Time/call    Tot.time           %
siesta                 1      77.511      77.511   100.00
Setup                  1       0.178       0.178     0.23
bands                  1       0.001       0.001     0.00
writewave              1       0.000       0.000     0.00
KSV_init               1       0.001       0.001     0.00
IterMD                 1      77.241      77.241    99.65
hsparse                1       0.041       0.041     0.05
overlap                1       0.431       0.431     0.56
IterSCF               12       5.914      70.966    91.56
kinefsm                2       0.214       0.428     0.55
nlefsm                 2       2.714       5.428     7.00
DHSCF                 13       2.454      31.906    41.16
DHSCF1                 1       0.220       0.220     0.28
DHSCF2                 1       5.391       5.391     6.96
REORD                 80       0.000       0.006     0.01
POISON                14       0.006       0.079     0.10
fft                   28       0.002       0.068     0.09
DHSCF3                13       1.915      24.900    32.12
rhoofd                13       0.936      12.172    15.70
cellXC                13       0.069       0.897     1.16
vmat                  13       0.902      11.730    15.13
MolMec                 2       0.000       0.000     0.00
diagon                12       3.227      38.719    49.95
c-eigval            7992       0.001      11.769    15.18
c-buildHS           7992       0.001      11.174    14.42
cdiag              15984       0.000       1.898     2.45
cdiag1             15984       0.000       0.091     0.12
cdiag2             15984       0.000       0.249     0.32
cdiag3             15984       0.000       1.252     1.61
cdiag4             15984       0.000       0.150     0.19
c-eigvec            7992       0.002      12.582    16.23
c-buildD            7992       0.002      14.092    18.18
DHSCF4                 1       1.390       1.390     1.79
dfscf                  1       1.094       1.094     1.41
overfsm                1       0.010       0.010     0.01
optical                1       0.001       0.001     0.00
  
>> End of run:  13-SEP-2010  11:06:57
