Siesta Version:  siesta-trunk-296
Architecture  : intel9.1-cmkl9.1-mpi-netcdf
Compiler flags: mpif90 -O2 -mp1 -cpp -DTRANSIESTA -DFC_HAVE_FLUSH -DFC_HAVE_ABORT -I/software/netcdf-3.6.2/include
PARALLEL version
NetCDF-capable

* Running on    2 nodes in parallel
>> Start of run:   8-OCT-2009  13:18:51

                           ***********************       
                           *  WELCOME TO SIESTA  *       
                           ***********************       

reinit: Reading from standard input
************************** Dump of input data file ****************************
SystemTitle Electrode
SystemLabel Electrode
SolutionMethod      diagon
MD.TypeOfRun        CG
MD.NumCGsteps       0
MD.MaxCGDispl       0.05 Ang
DM.NumberPulay      10
DM.MixingWeight     0.1
DM.Tolerance        1.d-4
MaxSCFIterations    200
MeshCutoff          200. Ry
%block kgrid_Monkhorst_Pack
 1    0    0    0.0
 0    1    0    0.0
 0    0   100   0.0
%endblock kgrid_Monkhorst_Pack
%block ChemicalSpeciesLabel
    1   79 Au_pbr                  # Species index, atomic number, species label
%endblock ChemicalSpeciesLabel
PAO.BasisSize     DZP
PAO.BasisType	split
xc.functional         GGA           # Exchange-correlation functional
xc.authors            PBE           # Exchange-correlation version
DM.UseSaveDM          true          # to use continuation files
%include STRUCT.fdf
************************** End of input data file *****************************

reinit: -----------------------------------------------------------------------
reinit: System Name: 
reinit: -----------------------------------------------------------------------
reinit: System Label: Electrode                                                   
reinit: -----------------------------------------------------------------------

initatom: Reading input for the pseudopotentials and atomic orbitals ----------
 Species number:            1  Label: Au_pbr Atomic number:          79
Ground state valence configuration:   6s01  5d10
Reading pseudopotential information in unformatted form from Au_pbr.vps

Pseudopotential generated from a relativistic atomic calculation
There are spin-orbit pseudopotentials available
Spin-orbit interaction is not included in this calculation

Valence configuration for pseudopotential generation:
6s( 1.00) rc: 2.29
6p( 0.00) rc: 3.14
5d(10.00) rc: 1.20
5f( 0.00) rc: 3.14
For Au_pbr, standard SIESTA heuristics set lmxkb to 3
 (one more than the basis l, including polarization orbitals).
Use PS.lmax or PS.KBprojectors blocks to override.

<basis_specs>
===============================================================================
Au_pbr               Z=  79    Mass=  196.97        Charge= 0.17977+309
Lmxo=2 Lmxkb=3     BasisType=split      Semic=F
L=0  Nsemic=0  Cnfigmx=6
          n=1  nzeta=2  polorb=1
            splnorm:   0.15000    
               vcte:    0.0000    
               rinn:    0.0000    
                rcs:    0.0000      0.0000    
            lambdas:    1.0000      1.0000    
L=1  Nsemic=0  Cnfigmx=6
L=2  Nsemic=0  Cnfigmx=5
          n=1  nzeta=2  polorb=0
            splnorm:   0.15000    
               vcte:    0.0000    
               rinn:    0.0000    
                rcs:    0.0000      0.0000    
            lambdas:    1.0000      1.0000    
-------------------------------------------------------------------------------
L=0  Nkbl=1  erefs: 0.17977+309
L=1  Nkbl=1  erefs: 0.17977+309
L=2  Nkbl=1  erefs: 0.17977+309
L=3  Nkbl=1  erefs: 0.17977+309
===============================================================================
</basis_specs>

atom: Called for Au_pbr                (Z =  79)

read_vps: Pseudopotential generation method:
read_vps: ATM3      Troullier-Martins                       
Total valence charge:   11.00000

read_vps: Pseudopotential includes a core correction:
read_vps: Pseudo-core for xc-correction

xc_check: Exchange-correlation functional:
xc_check: GGA Perdew, Burke & Ernzerhof 1996
V l=0 = -2*Zval/r beyond r=  2.9833
V l=1 = -2*Zval/r beyond r=  3.1363
V l=2 = -2*Zval/r beyond r=  2.9833
V l=3 = -2*Zval/r beyond r=  3.1363
All V_l potentials equal beyond r=  3.0973
This should be close to max(r_c) in ps generation
All pots = -2*Zval/r beyond r=  3.1363

VLOCAL1: 99.0% of the norm of Vloc inside      4.525 Ry
VLOCAL1: 99.9% of the norm of Vloc inside     10.312 Ry
atom: Maximum radius for 4*pi*r*r*local-pseudopot. charge    3.73611
atom: Maximum radius for r*vlocal+2*Zval:    3.29710
GHOST: No ghost state for L =  0
GHOST: No ghost state for L =  1
GHOST: No ghost state for L =  2
GHOST: No ghost state for L =  3

KBgen: Kleinman-Bylander projectors: 
   l= 0   rc=  3.423088   el= -0.421435   Ekb=  5.114239   kbcos=  0.182513
   l= 1   rc=  3.553892   el= -0.058080   Ekb=  1.612319   kbcos=  0.221966
   l= 2   rc=  3.256140   el= -0.508574   Ekb= -6.472599   kbcos= -0.707183
   l= 3   rc=  3.643860   el=  0.003083   Ekb= -1.026026   kbcos= -0.026089

KBgen: Total number of  Kleinman-Bylander projectors:   16
atom: -------------------------------------------------------------------------

atom: SANKEY-TYPE ORBITALS:
atom: Selected multiple-zeta basis: split     

SPLIT: Orbitals with angular momentum L= 0

SPLIT: Basis orbitals for state 6s

SPLIT: PAO cut-off radius determined from an
SPLIT: energy shift=  0.020000 Ry

   izeta = 1
                 lambda =    1.000000
                     rc =    6.083298
                 energy =   -0.401245
                kinetic =    0.410387
    potential(screened) =   -0.811633
       potential(ionic) =   -8.546288

   izeta = 2
                 rmatch =    5.714728
              splitnorm =    0.150000
                 energy =   -0.334451
                kinetic =    0.631788
    potential(screened) =   -0.966238
       potential(ionic) =   -9.133087

SPLIT: Orbitals with angular momentum L= 2

SPLIT: Basis orbitals for state 5d

SPLIT: PAO cut-off radius determined from an
SPLIT: energy shift=  0.020000 Ry

   izeta = 1
                 lambda =    1.000000
                     rc =    4.286818
                 energy =   -0.490514
                kinetic =    5.136108
    potential(screened) =   -5.626622
       potential(ionic) =  -16.178571

   izeta = 2
                 rmatch =    2.802581
              splitnorm =    0.150000
                 energy =   -0.198467
                kinetic =    7.102923
    potential(screened) =   -7.301389
       potential(ionic) =  -18.591160

POLgen: Perturbative polarization orbital with L=  1

POLgen: Polarization orbital for state 6s

   izeta = 1
                     rc =    6.083298
                 energy =   -0.048330
                kinetic =    0.728192
    potential(screened) =   -0.776522
       potential(ionic) =   -8.118288
atom: Total number of Sankey-type orbitals: 15

atm_pop: Valence configuration (for local Pseudopot. screening):
 6s( 1.00)                                                            
 6p( 0.00)                                                            
 5d(10.00)                                                            
Vna: chval, zval:   11.00000  11.00000

Vna:  Cut-off radius for the neutral-atom potential:   6.083298
comcore: Pseudo-core radius Rcore=  4.027091

atom: _________________________________________________________________________

prinput: Basis input ----------------------------------------------------------

PAO.BasisType split     

%block ChemicalSpeciesLabel
    1   79 Au_pbr                  # Species index, atomic number, species label
%endblock ChemicalSpeciesLabel

%block PAO.Basis                 # Define Basis set
Au_pbr                2                    # Species label, number of l-shells
 n=6   0   2 P   1                   # n, l, Nzeta, Polarization, NzetaPol
   6.083      5.715   
   1.000      1.000   
 n=5   2   2                         # n, l, Nzeta 
   4.287      2.803   
   1.000      1.000   
%endblock PAO.Basis

prinput: ----------------------------------------------------------------------

Dumping basis to NetCDF file Au_pbr.ion.nc
coor:   Atomic-coordinates input format  =     Cartesian coordinates
coor:                                          (in Angstroms)

siesta: Atomic coordinates (Bohr) and species
siesta:      0.00000   0.00000   0.00000  1        1
siesta:      0.00000   0.00000   4.79991  1        2
siesta:      0.00000   0.00000   9.59981  1        3
siesta:      0.00000   0.00000  14.39972  1        4

siesta: System type = chain     

initatomlists: Number of atoms, orbitals, and projectors:      4    60    64

siesta: ******************** Simulation parameters ****************************
siesta:
siesta: The following are some of the parameters of the simulation.
siesta: A complete list of the parameters used, including default values,
siesta: can be found in file out.fdf
siesta:
redata: Non-Collinear-spin run           =     F
redata: SpinPolarized (Up/Down) run      =     F
redata: Number of spin components        =     1
redata: Long output                      =     F
redata: Number of Atomic Species         =        1
redata: Charge density info will appear in .RHO file
redata: Write Mulliken Pop.              =     NO
redata: Mesh Cutoff                      =   200.0000  Ry
redata: Net charge of the system         =     0.0000 |e|
redata: Max. number of SCF Iter          =      200
redata: Performing Pulay mixing using    =    10 iterations
redata: Mix DM in first SCF step ?       =     F
redata: Write Pulay info on disk?        =     F
redata: New DM Mixing Weight             =     0.1000
redata: New DM Occupancy tolerance       = 0.000000000001
redata: No kicks to SCF
redata: DM Mixing Weight for Kicks       =     0.5000
redata: DM Tolerance for SCF             =     0.000100
redata: Require Energy convergence for SCF =     F
redata: DM Energy tolerance for SCF      =     0.000100 eV
redata: Require Harris convergence for SCF =     F
redata: DM Harris energy tolerance for SCF =     0.000100 eV
redata: Using Saved Data (generic)   =     F
redata: Use continuation files for DM    =     T
redata: Neglect nonoverlap interactions  =     F
redata: Method of Calculation            =     Diagonalization
redata: Divide and Conquer               =     T
redata: Electronic Temperature           =     0.0019  Ry
redata: Fix the spin of the system       =     F
redata: Dynamics option                  =     CG coord. optimization
redata: Variable cell                    =     F
redata: Use continuation files for CG    =     F
redata: Max atomic displ per move        =     0.0945  Bohr
redata: Maximum number of CG moves       =        0
redata: Force tolerance                  =     0.0016  Ry/Bohr
redata: ***********************************************************************
 
ts_read_options: **************************************************************
ts_read_options: Save H and S matrices   =    T
ts_read_options: Save S and quit (onlyS) =    F
ts_read_options: Use TS EDM              =    T
ts_read_options: Mixing Hamiltonian      =    F
ts_read_options: TranSIESTA Voltage      =    0.0000 Volts
ts_read_options: Bulk Values in Elecs    =    T
ts_read_options: TriDiag                 =    T
ts_read_options: Update DM CR            =    T
ts_read_options: Use VFix                =    T
ts_read_options: Fix Contact Charge      =    F
ts_read_options: N. Buffer At. Left      =    0
ts_read_options: N. Buffer At. Right     =    0
ts_read_options: N. Pts. Circle          =   12
ts_read_options: N. Pts. Line            =    3
ts_read_options: N. Poles in Contour     =    5
ts_read_options: N. Pts. Bias Contour    =    5
ts_read_options: Contour E Min.          =   -2.0000 Ry
ts_read_options: GFEta                   =    0.000001 Ry
ts_read_options: Electronic Temperature  =    0.0019 Ry
ts_read_options: Bias Contour Method     =    gaussfermi          
ts_read_options: Left GF File            =    Left.GF                          
ts_read_options: Right GF File           =    Right.GF                         
ts_read_options: **************************************************************
 
************************ Begin: TS CHECKS AND WARNINGS ************************
************************ End: TS CHECKS AND WARNINGS **************************
 
Total number of electrons:    44.000000
Total ionic charge:    44.000000

* ProcessorY, Blocksize:    1  24

k-point displ. along   3 input, could be:     0.00    0.50
 Kpoints in:           51 . Kpoints trimmed:           51

siesta: k-grid: Number of k-points =    51
siesta: k-grid: Cutoff (effective) =     4.500 Ang
siesta: k-grid: Supercell and displacements
siesta: k-grid:    1   0   0      0.000
siesta: k-grid:    0   1   0      0.000
siesta: k-grid:    0   0 100      0.000
 Kpoints in:            1 . Kpoints trimmed:            1

transiesta: ts_k-grid: Number of Transport k-points =     1
transiesta: ts_k-grid: Supercell and displacements
transiesta: ts_k-grid:    1   0   0      0.000
transiesta: ts_k-grid:    0   1   0      0.000
 
Naive supercell factors:     3    3    3

superc: Internal auxiliary supercell:     3 x     3 x     3  =      27
superc: Number of atoms, orbitals, and projectors:    108  1620  1728

* Maximum dynamic memory allocated =     1 MB

siesta:                 ==============================
                            Begin CG move =      0
                        ==============================

superc: Internal auxiliary supercell:     3 x     3 x     3  =      27
superc: Number of atoms, orbitals, and projectors:    108  1620  1728

outcell: Unit cell vectors (Ang):
        9.000000    0.000000    0.000000
        0.000000    9.000000    0.000000
        0.000000    0.000000   10.160000

outcell: Cell vector modules (Ang)   :    9.000000    9.000000   10.160000
outcell: Cell angles (23,13,12) (deg):     90.0000     90.0000     90.0000
outcell: Cell volume (Ang**3)        :    822.9600
New_DM. Step:     1
Initializing Density Matrix...

InitMesh: MESH =    80 x    80 x    90 =      576000
InitMesh: Mesh cutoff (required, used) =   200.000   216.870 Ry
-- Node    1 :      294400      1:  80   1:  80   1:  46
-- Node    2 :      281600      1:  80   1:  80  47:  90

* Maximum dynamic memory allocated =    42 MB

stepf: Fermi-Dirac step function

siesta: Program's energy decomposition (eV):
siesta: Eions   =      3801.028148
siesta: Ena     =        13.329781
siesta: Ekin    =      2817.512992
siesta: Enl     =     -1837.814595
siesta: DEna    =         0.000000
siesta: DUscf   =         0.000000
siesta: DUext   =         0.000000
siesta: Exc     =     -2905.210708
siesta: eta*DQ  =         0.000000
siesta: Emadel  =         0.000000
siesta: Emeta   =         0.000000
siesta: Emolmec =         0.000000
siesta: Ekinion =         0.000000
siesta: Eharris =     -5727.978371
siesta: Etot    =     -5713.210678
siesta: FreeEng =     -5713.210678

siesta: iscf   Eharris(eV)      E_KS(eV)   FreeEng(eV)   dDmax  Ef(eV)
siesta:    1    -5727.9784    -5713.2107    -5713.2107  1.1400 -1.5741
timer: Routine,Calls,Time,% = IterSCF        1      14.920  80.46
elaps: Routine,Calls,Wall,% = IterSCF        1       7.749  70.35
siesta:    2    -5736.1705    -5711.1881    -5711.1992  1.6655 -7.4639
siesta:    3    -5721.6331    -5716.5067    -5716.5103  0.6081 -5.3757
siesta:    4    -5721.4345    -5716.6548    -5716.6743  0.4760 -5.1304
siesta:    5    -5721.4341    -5716.8836    -5716.9085  0.4657 -5.1334
siesta:    6    -5721.3098    -5721.3349    -5721.3597  0.0571 -4.7952
siesta:    7    -5721.3062    -5721.3307    -5721.3573  0.0387 -4.7652
siesta:    8    -5721.3028    -5721.3390    -5721.3654  0.0079 -4.7070
siesta:    9    -5721.3028    -5721.3153    -5721.3415  0.0048 -4.7056
siesta:   10    -5721.3028    -5721.2911    -5721.3173  0.0013 -4.7072
siesta:   11    -5721.3028    -5721.2953    -5721.3215  0.0008 -4.7074
siesta:   12    -5721.3028    -5721.3008    -5721.3270  0.0003 -4.7079
siesta:   13    -5721.3028    -5721.3025    -5721.3287  0.0000 -4.7080

siesta: E_KS(eV) =            -5721.3026

siesta: E_KS - E_eggbox =     -5721.3026

siesta: Atomic forces (eV/Ang):
----------------------------------------
   Tot   -0.000006   -0.000008    0.000025
----------------------------------------
   Max    0.000014
   Res    0.000006    sqrt( Sum f_i^2 / 3N )
----------------------------------------
   Max    0.000014    constrained

Stress-tensor-Voigt (kbar):       -0.02       -0.02       -0.82        0.00        0.00        0.00
(Free)E + p*V (eV/cell)    -5721.1802
Target enthalpy (eV/cell)    -5721.3287

* Maximum dynamic memory allocated =    42 MB

siesta: Program's energy decomposition (eV):
siesta: Eions   =      3801.028148
siesta: Ena     =        13.329781
siesta: Ekin    =      2662.269374
siesta: Enl     =     -1725.889200
siesta: DEna    =         2.794124
siesta: DUscf   =         2.977107
siesta: DUext   =         0.000000
siesta: Exc     =     -2875.755624
siesta: eta*DQ  =         0.000000
siesta: Emadel  =         0.000000
siesta: Emeta   =         0.000000
siesta: Emolmec =         0.000000
siesta: Ekinion =         0.000000
siesta: Eharris =     -5721.302780
siesta: Etot    =     -5721.302586
siesta: FreeEng =     -5721.328745

siesta: Final energy (eV):
siesta:       Kinetic =    2662.269374
siesta:       Hartree =    3133.898673
siesta:    Ext. field =       0.000000
siesta:   Exch.-corr. =   -2875.755624
siesta:  Ion-electron =   -8263.092117
siesta:       Ion-ion =    -378.622892
siesta:       Ekinion =       0.000000
siesta:         Total =   -5721.302586

siesta: Stress tensor (static) (eV/Ang**3):
siesta:    -0.000014    0.000000    0.000000
siesta:     0.000000   -0.000014    0.000000
siesta:     0.000000    0.000000   -0.000513

siesta: Cell volume =        822.960000 Ang**3

siesta: Pressure (static):
siesta:                Solid            Molecule  Units
siesta:           0.00000197          0.00000197  Ry/Bohr**3
siesta:           0.00018045          0.00018046  eV/Ang**3
siesta:           0.28912313          0.28913390  kBar
(Free)E+ p_basis*V_orbitals  =       -5719.042481
(Free)Eharris+ p_basis*V_orbitals  =       -5719.042745

siesta: Electric dipole (a.u.)  =    0.000000    0.000000    0.000000
siesta: Electric dipole (Debye) =    0.000000    0.000000    0.000000

* Maximum dynamic memory allocated : Node    0 =    42 MB
* Maximum dynamic memory allocated : Node    1 =    41 MB

* Maximum memory occured during redistribXZ                   

timer: CPU execution times:
timer:  Routine       Calls   Time/call    Tot.time        %
timer:  siesta            1      83.272      83.272   100.00
timer:  Setup             1       1.024       1.024     1.23
timer:  bands             1       0.008       0.008     0.01
timer:  writewave         1       0.000       0.000     0.00
timer:  KSV_init          1       0.000       0.000     0.00
timer:  IterMD            1      82.192      82.192    98.70
timer:  hsparse           1       0.012       0.012     0.01
timer:  overlap           1       2.552       2.552     3.06
timer:  IterSCF          13       5.739      74.612    89.60
timer:  kinefsm           2       1.232       2.464     2.96
timer:  nlefsm            2       2.140       4.280     5.14
timer:  DHSCF            14       2.981      41.736    50.12
timer:  DHSCF1            1       0.668       0.668     0.80
timer:  DHSCF2            1       2.548       2.548     3.06
timer:  REORD           114       0.002       0.220     0.26
timer:  POISON           15       0.462       6.924     8.31
timer:  DHSCF3           14       2.587      36.224    43.50
timer:  rhoofd           14       0.397       5.556     6.67
timer:  cellXC           14       1.353      18.940    22.74
timer:  vmat             14       0.276       3.868     4.65
timer:  MolMec            2       0.000       0.000     0.00
timer:  diagon           13       2.320      30.160    36.22
timer:  c-eigval        663       0.021      13.948    16.75
timer:  c-buildHS       663       0.000       0.076     0.09
timer:  cdiag          1326       0.021      28.412    34.12
timer:  cdiag1         1326       0.002       2.464     2.96
timer:  cdiag2         1326       0.005       6.124     7.35
timer:  cdiag3         1326       0.014      18.848    22.63
timer:  cdiag4         1326       0.000       0.616     0.74
timer:  c-eigvec        663       0.022      14.616    17.55
timer:  c-buildD        663       0.002       1.308     1.57
timer:  DHSCF4            1       2.192       2.192     2.63
timer:  dfscf             1       1.884       1.884     2.26
timer:  overfsm           1       0.008       0.008     0.01
timer:  optical           1       0.032       0.032     0.04
  

elaps: ELAPSED times:
elaps:  Routine       Calls   Time/call    Tot.time        %
elaps:  siesta            1      43.764      43.764   100.00
elaps:  Setup             1       1.960       1.960     4.48
elaps:  bands             1       0.000       0.000     0.00
elaps:  writewave         1       0.001       0.001     0.00
elaps:  KSV_init          1       0.000       0.000     0.00
elaps:  IterMD            1      41.770      41.770    95.44
elaps:  hsparse           1       0.006       0.006     0.01
elaps:  overlap           1       1.280       1.280     2.93
elaps:  IterSCF          13       2.921      37.977    86.77
elaps:  kinefsm           2       0.619       1.238     2.83
elaps:  nlefsm            2       1.070       2.140     4.89
elaps:  DHSCF            14       1.509      21.124    48.27
elaps:  DHSCF1            1       0.340       0.340     0.78
elaps:  DHSCF2            1       1.273       1.273     2.91
elaps:  REORD           114       0.001       0.120     0.27
elaps:  POISON           15       0.233       3.488     7.97
elaps:  DHSCF3           14       1.310      18.334    41.89
elaps:  rhoofd           14       0.202       2.827     6.46
elaps:  cellXC           14       0.688       9.632    22.01
elaps:  vmat             14       0.139       1.945     4.44
elaps:  MolMec            2       0.000       0.000     0.00
elaps:  diagon           13       1.181      15.348    35.07
elaps:  c-eigval        663       0.011       7.152    16.34
elaps:  c-buildHS       663       0.000       0.049     0.11
elaps:  cdiag          1326       0.011      14.426    32.96
elaps:  cdiag1         1326       0.001       1.261     2.88
elaps:  cdiag2         1326       0.002       3.200     7.31
elaps:  cdiag3         1326       0.007       9.412    21.51
elaps:  cdiag4         1326       0.000       0.329     0.75
elaps:  c-eigvec        663       0.011       7.374    16.85
elaps:  c-buildD        663       0.001       0.671     1.53
elaps:  DHSCF4            1       1.113       1.113     2.54
elaps:  dfscf             1       0.957       0.957     2.19
elaps:  overfsm           1       0.007       0.007     0.02
elaps:  optical           1       0.000       0.000     0.00
  
>> End of run:   8-OCT-2009  13:19:35
