
                           ***********************       
                           *  WELCOME TO SIESTA  *       
                           ***********************       

reinit: Reading from standard input
reinit: Dumped input in INPUT_TMP.48523
************************** Dump of input data file ****************************
SystemTitle CuOH
SystemLabel CuOH
SolutionMethod        diagon
SlabDipoleCorrection true
MeshCutoff          100. Ry
PAO.BasisType split
%block ChemicalSpeciesLabel
    1    1 H.mpn                   # Species index, atomic number, species label
    2    8 O.mpn                   # Species index, atomic number, species label
    3   29 Cu.mpn                  # Species index, atomic number, species label
%endblock ChemicalSpeciesLabel
%block GeometryConstraints
position from 1 to 18
%endblock GeometryConstraints
MD.TypeOfRun        CG
MD.NumCGsteps       200
MD.UseSaveCG        true
MD.UseSaveXV        true
UseSaveData         true
%block kgrid_Monkhorst_Pack
 1    0    0    0.0
 0    1    0    0.0
 0    0    1    0.0
%endblock kgrid_Monkhorst_Pack
MaxSCFIterations      300           # Maximum number of SCF iter
DM.Tolerance          1.d-4         # Tolerance in maximum difference
                                    # between input and output DM
DM.UseSaveDM          true          # to use continuation files
%include ./STRUCT.fdf
%include ./Default.fdf
************************** End of input data file *****************************

reinit: -----------------------------------------------------------------------
reinit: System Name: 
reinit: -----------------------------------------------------------------------
reinit: System Label: CuOH
reinit: -----------------------------------------------------------------------
Siesta Version: siesta-4.1--736
Architecture  : unknown
Compiler flags: mpif90 -m64 -O2 -fPIC -funroll-loops -fprefetch-loop-arrays -fno-second-underrscore -fbacktrace -ftree-vectorize  -I/bionano2/netcdf/include -I/bionano2/netcdf/../hdf5/include
PP flags      : -DMPI -DCDF -DNCDF_4 -DFC_HAVE_ABORT -DTRANSIESTA
Libraries     : libncdf.a libfdict.a  /bionano2/lib/libscalapack.a -L/bionano2/openblas/lib --lopenblas -pthread -L/bionano2/netcdf/lib -L/bionano2/hdf5/lib -lnetcdff -lnetcdf -lhdf5hl_fortran -lhdf5_fortran -lhdf5_hl -lhdf5 -lz
PARALLEL version
TRANSIESTA support
NetCDF support
NetCDF-4 support

* Running on 8 nodes in parallel
>> Start of run:   7-MAY-2018  14:24:18

initatom: Reading input for the pseudopotentials and atomic orbitals ----------
Species number:   1 Atomic number:    1 Label: H.mpn
Species number:   2 Atomic number:    8 Label: O.mpn
Species number:   3 Atomic number:   29 Label: Cu.mpn

Ground state valence configuration:   1s01
Reading pseudopotential information in unformatted form from H.mpn.vps

Pseudopotential generated from a relativistic atomic calculation
There are spin-orbit pseudopotentials available
Spin-orbit interaction is not included in this calculation

Valence configuration for pseudopotential generation:
1s( 1.00) rc: 1.25
2p( 0.00) rc: 1.25
3d( 0.00) rc: 1.25
4f( 0.00) rc: 1.19
Ground state valence configuration:   2s02  2p04
Reading pseudopotential information in unformatted form from O.mpn.vps

Pseudopotential generated from a relativistic atomic calculation
There are spin-orbit pseudopotentials available
Spin-orbit interaction is not included in this calculation

Valence configuration for pseudopotential generation:
2s( 2.00) rc: 1.14
2p( 4.00) rc: 1.14
3d( 0.00) rc: 1.14
4f( 0.00) rc: 1.10
Ground state valence configuration:   4s01  3d10
Reading pseudopotential information in unformatted form from Cu.mpn.vps

Pseudopotential generated from a relativistic atomic calculation
There are spin-orbit pseudopotentials available
Spin-orbit interaction is not included in this calculation

Valence configuration for pseudopotential generation:
4s( 1.00) rc: 2.08
4p( 0.00) rc: 2.08
3d(10.00) rc: 2.08
4f( 0.00) rc: 2.08
For H.mpn, standard SIESTA heuristics set lmxkb to 2
 (one more than the basis l, including polarization orbitals).
Use PS.lmax or PS.KBprojectors blocks to override.
For O.mpn, standard SIESTA heuristics set lmxkb to 3
 (one more than the basis l, including polarization orbitals).
Use PS.lmax or PS.KBprojectors blocks to override.
For Cu.mpn, standard SIESTA heuristics set lmxkb to 3
 (one more than the basis l, including polarization orbitals).
Use PS.lmax or PS.KBprojectors blocks to override.

<basis_specs>
===============================================================================
H.mpn                Z=   1    Mass=  1.0100        Charge= 0.17977+309
Lmxo=0 Lmxkb= 2    BasisType=split      Semic=F
L=0  Nsemic=0  Cnfigmx=1
          n=1  nzeta=1  polorb=1
            splnorm:   0.15000    
               vcte:    0.0000    
               rinn:    0.0000    
               qcoe:    0.0000    
               qyuk:    0.0000    
               qwid:   0.10000E-01
                rcs:    0.0000    
            lambdas:    1.0000    
-------------------------------------------------------------------------------
L=0  Nkbl=1  erefs: 0.17977+309
L=1  Nkbl=1  erefs: 0.17977+309
L=2  Nkbl=1  erefs: 0.17977+309
===============================================================================
</basis_specs>

atom: Called for H.mpn                 (Z =   1)

read_vps: Pseudopotential generation method:
read_vps: ATM3      Troullier-Martins                       
Total valence charge:    1.00000

xc_check: Exchange-correlation functional:
xc_check: GGA Perdew, Burke & Ernzerhof 1996
V l=0 = -2*Zval/r beyond r=  1.2343
V l=1 = -2*Zval/r beyond r=  1.2189
V l=2 = -2*Zval/r beyond r=  1.2189
All V_l potentials equal beyond r=  1.2343
This should be close to max(r_c) in ps generation
All pots = -2*Zval/r beyond r=  1.2343

VLOCAL1: 99.0% of the norm of Vloc inside     28.493 Ry
VLOCAL1: 99.9% of the norm of Vloc inside     64.935 Ry
atom: Maximum radius for 4*pi*r*r*local-pseudopot. charge    1.45251
atom: Maximum radius for r*vlocal+2*Zval:    1.21892
GHOST: No ghost state for L =  0
GHOST: No ghost state for L =  1
GHOST: No ghost state for L =  2

KBgen: Kleinman-Bylander projectors: 
   l= 0   rc=  1.398961   el= -0.477184   Ekb= -2.022489   kbcos= -0.344760
   l= 1   rc=  1.730774   el=  0.001076   Ekb= -0.447448   kbcos= -0.022756
   l= 2   rc=  2.036604   el=  0.002010   Ekb= -0.163621   kbcos= -0.002660

KBgen: Total number of  Kleinman-Bylander projectors:    9
atom: -------------------------------------------------------------------------

atom: SANKEY-TYPE ORBITALS:

SPLIT: Orbitals with angular momentum L= 0

SPLIT: Basis orbitals for state 1s

SPLIT: PAO cut-off radius determined from an
SPLIT: energy shift=  0.010000 Ry

   izeta = 1
                 lambda =    1.000000
                     rc =    5.204501
                 energy =   -0.466856
                kinetic =    0.935621
    potential(screened) =   -1.402477
       potential(ionic) =   -1.927189

POLgen: Perturbative polarization orbital with L=  1

POLgen: Polarization orbital for state 1s

   izeta = 1
                     rc =    5.204501
                 energy =    0.666830
                kinetic =    1.331346
    potential(screened) =   -0.664516
       potential(ionic) =   -1.147041
atom: Total number of Sankey-type orbitals:  4

atm_pop: Valence configuration (for local Pseudopot. screening):
 1s( 1.00)                                                            
Vna: chval, zval:    1.00000   1.00000

Vna:  Cut-off radius for the neutral-atom potential:   5.204501

atom: _________________________________________________________________________

<basis_specs>
===============================================================================
O.mpn                Z=   8    Mass=  16.000        Charge= 0.17977+309
Lmxo=1 Lmxkb= 3    BasisType=split      Semic=F
L=0  Nsemic=0  Cnfigmx=2
          n=1  nzeta=1  polorb=0
            splnorm:   0.15000    
               vcte:    0.0000    
               rinn:    0.0000    
               qcoe:    0.0000    
               qyuk:    0.0000    
               qwid:   0.10000E-01
                rcs:    0.0000    
            lambdas:    1.0000    
L=1  Nsemic=0  Cnfigmx=2
          n=1  nzeta=1  polorb=1
            splnorm:   0.15000    
               vcte:    0.0000    
               rinn:    0.0000    
               qcoe:    0.0000    
               qyuk:    0.0000    
               qwid:   0.10000E-01
                rcs:    0.0000    
            lambdas:    1.0000    
-------------------------------------------------------------------------------
L=0  Nkbl=1  erefs: 0.17977+309
L=1  Nkbl=1  erefs: 0.17977+309
L=2  Nkbl=1  erefs: 0.17977+309
L=3  Nkbl=1  erefs: 0.17977+309
===============================================================================
</basis_specs>

atom: Called for O.mpn                 (Z =   8)

read_vps: Pseudopotential generation method:
read_vps: ATM3      Troullier-Martins                       
Total valence charge:    6.00000

xc_check: Exchange-correlation functional:
xc_check: GGA Perdew, Burke & Ernzerhof 1996
V l=0 = -2*Zval/r beyond r=  1.1420
V l=1 = -2*Zval/r beyond r=  1.1420
V l=2 = -2*Zval/r beyond r=  1.1420
V l=3 = -2*Zval/r beyond r=  1.1420
All V_l potentials equal beyond r=  1.1278
This should be close to max(r_c) in ps generation
All pots = -2*Zval/r beyond r=  1.1420

VLOCAL1: 99.0% of the norm of Vloc inside     34.126 Ry
VLOCAL1: 99.9% of the norm of Vloc inside     77.774 Ry
atom: Maximum radius for 4*pi*r*r*local-pseudopot. charge    1.37759
atom: Maximum radius for r*vlocal+2*Zval:    1.18566
GHOST: No ghost state for L =  0
GHOST: No ghost state for L =  1
GHOST: No ghost state for L =  2
GHOST: No ghost state for L =  3

KBgen: Kleinman-Bylander projectors: 
   l= 0   rc=  1.278025   el= -1.759792   Ekb=  9.084139   kbcos=  0.329569
   l= 1   rc=  1.262145   el= -0.663799   Ekb= -7.981946   kbcos= -0.392569
   l= 2   rc=  1.791199   el=  0.002031   Ekb= -1.973642   kbcos= -0.003480
   l= 3   rc=  2.055271   el=  0.003153   Ekb= -1.003879   kbcos= -0.000308

KBgen: Total number of  Kleinman-Bylander projectors:   16
atom: -------------------------------------------------------------------------

atom: SANKEY-TYPE ORBITALS:

SPLIT: Orbitals with angular momentum L= 0

SPLIT: Basis orbitals for state 2s

SPLIT: PAO cut-off radius determined from an
SPLIT: energy shift=  0.010000 Ry

   izeta = 1
                 lambda =    1.000000
                     rc =    3.562532
                 energy =   -1.750551
                kinetic =    1.600007
    potential(screened) =   -3.350559
       potential(ionic) =  -11.292263

SPLIT: Orbitals with angular momentum L= 1

SPLIT: Basis orbitals for state 2p

SPLIT: PAO cut-off radius determined from an
SPLIT: energy shift=  0.010000 Ry

   izeta = 1
                 lambda =    1.000000
                     rc =    4.351355
                 energy =   -0.654641
                kinetic =    4.876734
    potential(screened) =   -5.531375
       potential(ionic) =  -13.241687

POLgen: Perturbative polarization orbital with L=  2

POLgen: Polarization orbital for state 2p

   izeta = 1
                     rc =    4.351355
                 energy =    2.226578
                kinetic =    4.384292
    potential(screened) =   -2.157714
       potential(ionic) =   -8.277794
atom: Total number of Sankey-type orbitals:  9

atm_pop: Valence configuration (for local Pseudopot. screening):
 2s( 2.00)                                                            
 2p( 4.00)                                                            
Vna: chval, zval:    6.00000   6.00000

Vna:  Cut-off radius for the neutral-atom potential:   4.351355

atom: _________________________________________________________________________

<basis_specs>
===============================================================================
Cu.mpn               Z=  29    Mass=  63.550        Charge= 0.17977+309
Lmxo=2 Lmxkb= 3    BasisType=split      Semic=F
L=0  Nsemic=0  Cnfigmx=4
          n=1  nzeta=1  polorb=1
            splnorm:   0.15000    
               vcte:    0.0000    
               rinn:    0.0000    
               qcoe:    0.0000    
               qyuk:    0.0000    
               qwid:   0.10000E-01
                rcs:    0.0000    
            lambdas:    1.0000    
L=1  Nsemic=0  Cnfigmx=4
L=2  Nsemic=0  Cnfigmx=3
          n=1  nzeta=1  polorb=0
            splnorm:   0.15000    
               vcte:    0.0000    
               rinn:    0.0000    
               qcoe:    0.0000    
               qyuk:    0.0000    
               qwid:   0.10000E-01
                rcs:    0.0000    
            lambdas:    1.0000    
-------------------------------------------------------------------------------
L=0  Nkbl=1  erefs: 0.17977+309
L=1  Nkbl=1  erefs: 0.17977+309
L=2  Nkbl=1  erefs: 0.17977+309
L=3  Nkbl=1  erefs: 0.17977+309
===============================================================================
</basis_specs>

atom: Called for Cu.mpn                (Z =  29)

read_vps: Pseudopotential generation method:
read_vps: ATM3      Troullier-Martins                       
Total valence charge:   11.00000

read_vps: Pseudopotential includes a core correction:
read_vps: Pseudo-core for xc-correction

xc_check: Exchange-correlation functional:
xc_check: GGA Perdew, Burke & Ernzerhof 1996
V l=0 = -2*Zval/r beyond r=  2.4785
V l=1 = -2*Zval/r beyond r=  2.4785
V l=2 = -2*Zval/r beyond r=  2.4785
V l=3 = -2*Zval/r beyond r=  2.4785
All V_l potentials equal beyond r=  2.0548
This should be close to max(r_c) in ps generation
All pots = -2*Zval/r beyond r=  2.4785

VLOCAL1: 99.0% of the norm of Vloc inside     10.281 Ry
VLOCAL1: 99.9% of the norm of Vloc inside     23.431 Ry
atom: Maximum radius for 4*pi*r*r*local-pseudopot. charge    2.50972
atom: Maximum radius for r*vlocal+2*Zval:    2.18729
GHOST: No ghost state for L =  0
GHOST: No ghost state for L =  1
GHOST: No ghost state for L =  2
GHOST: No ghost state for L =  3

KBgen: Kleinman-Bylander projectors: 
   l= 0   rc=  2.705191   el= -0.337844   Ekb=  4.761305   kbcos=  0.232453
   l= 1   rc=  2.773676   el= -0.051303   Ekb=  2.177609   kbcos=  0.174687
   l= 2   rc=  2.417343   el= -0.371311   Ekb=-13.400289   kbcos= -0.707855
   l= 3   rc=  3.065395   el=  0.003068   Ekb= -1.054831   kbcos= -0.005162

KBgen: Total number of  Kleinman-Bylander projectors:   16
atom: -------------------------------------------------------------------------

atom: SANKEY-TYPE ORBITALS:

SPLIT: Orbitals with angular momentum L= 0

SPLIT: Basis orbitals for state 4s

SPLIT: PAO cut-off radius determined from an
SPLIT: energy shift=  0.010000 Ry

   izeta = 1
                 lambda =    1.000000
                     rc =    7.082961
                 energy =   -0.328771
                kinetic =    0.323755
    potential(screened) =   -0.652526
       potential(ionic) =   -8.775741

SPLIT: Orbitals with angular momentum L= 2

SPLIT: Basis orbitals for state 3d

SPLIT: PAO cut-off radius determined from an
SPLIT: energy shift=  0.010000 Ry

   izeta = 1
                 lambda =    1.000000
                     rc =    4.086477
                 energy =   -0.361987
                kinetic =   10.344957
    potential(screened) =  -10.706943
       potential(ionic) =  -25.502936

POLgen: Perturbative polarization orbital with L=  1

POLgen: Polarization orbital for state 4s

   izeta = 1
                     rc =    7.082961
                 energy =    0.014970
                kinetic =    0.605069
    potential(screened) =   -0.590099
       potential(ionic) =   -7.918456
atom: Total number of Sankey-type orbitals:  9

atm_pop: Valence configuration (for local Pseudopot. screening):
 4s( 1.00)                                                            
 4p( 0.00)                                                            
 3d(10.00)                                                            
Vna: chval, zval:   11.00000  11.00000

Vna:  Cut-off radius for the neutral-atom potential:   7.082961
comcore: Pseudo-core radius Rcore=  3.430408

atom: _________________________________________________________________________

prinput: Basis input ----------------------------------------------------------

PAO.BasisType split     

%block ChemicalSpeciesLabel
    1    1 H.mpn                   # Species index, atomic number, species label
    2    8 O.mpn                   # Species index, atomic number, species label
    3   29 Cu.mpn                  # Species index, atomic number, species label
%endblock ChemicalSpeciesLabel

%block PAO.Basis                 # Define Basis set
H.mpn                 1                    # Species label, number of l-shells
 n=1   0   1 P   1                   # n, l, Nzeta, Polarization, NzetaPol
   5.205   
   1.000   
O.mpn                 2                    # Species label, number of l-shells
 n=2   0   1                         # n, l, Nzeta 
   3.563   
   1.000   
 n=2   1   1 P   1                   # n, l, Nzeta, Polarization, NzetaPol
   4.351   
   1.000   
Cu.mpn                2                    # Species label, number of l-shells
 n=4   0   1 P   1                   # n, l, Nzeta, Polarization, NzetaPol
   7.083   
   1.000   
 n=3   2   1                         # n, l, Nzeta 
   4.086   
   1.000   
%endblock PAO.Basis

prinput: ----------------------------------------------------------------------

Dumping basis to NetCDF file H.mpn.ion.nc
Dumping basis to NetCDF file O.mpn.ion.nc
Dumping basis to NetCDF file Cu.mpn.ion.nc
coor:   Atomic-coordinates input format  =     Cartesian coordinates
coor:                                          (in Angstroms)

siesta: WARNING: XV file not found

siesta: Atomic coordinates (Bohr) and species
siesta:      0.00000   6.88980   0.00000  3        1
siesta:      4.87182   6.88980   0.00000  3        2
siesta:      9.74365   6.88980   0.00000  3        3
siesta:      0.00000  13.77960   0.00000  3        4
siesta:      4.87182  13.77960   0.00000  3        5
siesta:      9.74365  13.77960   0.00000  3        6
siesta:      0.00000  20.66940   0.00000  3        7
siesta:      4.87182  20.66940   0.00000  3        8
siesta:      9.74365  20.66940   0.00000  3        9
siesta:     -2.43591   3.44490   2.43591  3       10
siesta:      2.43591   3.44490   2.43591  3       11
siesta:      7.30774   3.44490   2.43591  3       12
siesta:     -2.43591  10.33470   2.43591  3       13
siesta:      2.43601  10.33470   2.43591  3       14
siesta:      7.30774  10.33470   2.43591  3       15
siesta:     -2.43591  17.22450   2.43591  3       16
siesta:      2.43601  17.22450   2.43591  3       17
siesta:      7.30774  17.22450   2.43591  3       18
siesta:      0.00189  20.67065   4.86084  3       19
siesta:      0.00312  13.77928   4.82346  3       20
siesta:      9.74229  20.66872   4.86099  3       21
siesta:      4.87529  20.66930   4.85976  3       22
siesta:      4.86830  13.77575   4.84273  3       23
siesta:      9.75501  13.77532   4.84218  3       24
siesta:      0.00433   6.88281   4.81798  3       25
siesta:      4.86926   6.88904   4.84682  3       26
siesta:      9.75143   6.88799   4.84659  3       27
siesta:      7.31264  17.21933   7.05846  3       28
siesta:      2.48845  10.35390   7.17058  3       29
siesta:     -2.47929  10.34945   7.17077  3       30
siesta:      7.30962   3.44842   7.06208  3       31
siesta:      7.31537  10.33545   7.03717  3       32
siesta:     -2.42804   3.43726   7.07086  3       33
siesta:      2.43290   3.43866   7.07085  3       34
siesta:      2.44347  17.22467   7.05692  3       35
siesta:     -2.42989  17.22343   7.05645  3       36
siesta:      0.00828   9.63724   9.89604  2       37
siesta:      0.01146   7.76170   9.92146  1       38

siesta: System type = slab      

initatomlists: Number of atoms, orbitals, and projectors:     38   337   601

siesta: ******************** Simulation parameters ****************************
siesta:
siesta: The following are some of the parameters of the simulation.
siesta: A complete list of the parameters used, including default values,
siesta: can be found in file out.fdf
siesta:
redata: Spin configuration                          = none
redata: Number of spin components                   = 1
redata: Time-Reversal Symmetry                      = T
redata: Spin-spiral                                 = F
redata: Long output                                 =   T
redata: Number of Atomic Species                    =        3
redata: Charge density info will appear in .RHO file
redata: Write Mulliken Pop.                         = Atomic and Orbital charges
redata: Mesh Cutoff                                 =   100.0000 Ry
redata: Net charge of the system                    =     0.0000 |e|
redata: Min. number of SCF Iter                     =        0
redata: Max. number of SCF Iter                     =      300
redata: SCF mix quantity                            = Hamiltonian
redata: Mix DM or H after convergence               =   F
redata: Recompute H after scf cycle                 =   F
redata: Mix DM in first SCF step                    =   T
redata: Write Pulay info on disk                    =   F
redata: New DM Mixing Weight                        =     0.1000
redata: New DM Occupancy tolerance                  = 0.000000000001
redata: No kicks to SCF
redata: DM Mixing Weight for Kicks                  =     0.5000
redata: Require Harris convergence for SCF          =   F
redata: Harris energy tolerance for SCF             =     0.000100 eV
redata: Require DM convergence for SCF              =   T
redata: DM tolerance for SCF                        =     0.0001
redata: Require EDM convergence for SCF             =   F
redata: EDM tolerance for SCF                       =     0.001000 eV
redata: Require H convergence for SCF               =   T
redata: Hamiltonian tolerance for SCF               =     0.001000 eV
redata: Require (free) Energy convergence for SCF   =   F
redata: (free) Energy tolerance for SCF             =     0.000100 eV
redata: Using Saved Data (generic)                  =   T
redata: Use continuation files for DM               =   T
redata: Neglect nonoverlap interactions             =   F
redata: Method of Calculation                       = Diagonalization
redata: Divide and Conquer                          =   T
redata: Electronic Temperature                      =   299.9869 K
redata: Fix the spin of the system                  =   F
redata: Dynamics option                             = CG coord. optimization
redata: Variable cell                               =   F
redata: Use continuation files for CG               =   T
redata: Max atomic displ per move                   =     0.1058 Ang
redata: Maximum number of CG moves                  =      200
redata: Force tolerance                             =     0.0200 eV/Ang
mix.SCF: Pulay mixing                            = Pulay
mix.SCF:    Variant                              = stable
mix.SCF:    History steps                        = 5
mix.SCF:    Linear mixing weight                 =     0.100000
mix.SCF:    Mixing weight                        =     0.100000
mix.SCF:    SVD condition                        = 0.1000E-07
redata: Save all siesta data in one NC              =   F
redata: ***********************************************************************

%block SCF.Mixers
  Pulay
%endblock SCF.Mixers

%block SCF.Mixer.Pulay
  # Mixing method
  method pulay
  variant stable

  # Mixing options
  weight 0.1000
  weight.linear 0.1000
  history 5
%endblock SCF.Mixer.Pulay

DM_history_depth set to one: no extrapolation allowed by default for geometry relaxation
Size of DM history Fstack: 1
Total number of electrons:   403.000000
Total ionic charge:   403.000000

* ProcessorY, Blocksize:    2  24


* Orbital distribution balance (max,min):    48    24

 Kpoints in:            1 . Kpoints trimmed:            1

siesta: k-point coordinates (Bohr**-1) and weights:
siesta:    1    0.000000    0.000000    0.000000       1.000000

siesta: k-grid: Number of k-points =     1
siesta: k-grid: Cutoff (effective) =     3.867 Ang
siesta: k-grid: Supercell and displacements
siesta: k-grid:    1   0   0      0.000
siesta: k-grid:    0   1   0      0.000
siesta: k-grid:    0   0   1      0.000

siesta: Constraint (18): pos
  [ 1 -- 18 ]

 Kpoints in:            1 . Kpoints trimmed:            1

transiesta: ts_k-point coordinates (Bohr**-1) and weights:
transiesta:    1    0.000000    0.000000    0.000000       1.000000

transiesta: k-grid: Number of Green function k-points =     1
transiesta: k-grid: Supercell and displacements
transiesta: k-grid:    1   0   0      0.000
transiesta: k-grid:    0   1   0      0.000
transiesta: k-grid:    0   0   1      0.000

ts: **************************************************************
ts: Save H and S matrices                           =    T
ts: Save DM and EDM matrices                        =    F
ts: Fix Hartree potential                           =    F
ts: Only save the overlap matrix S                  =    F
ts: **************************************************************

************************ Begin: TS CHECKS AND WARNINGS ************************
************************ End: TS CHECKS AND WARNINGS **************************


                     ====================================
                        Begin CG opt. move =      0
                     ====================================

outcoor: Atomic coordinates (Ang):                          
    0.00000000    3.64592370    0.00000000   3       1  Cu.mpn
    2.57805737    3.64592370    0.00000000   3       2  Cu.mpn
    5.15611474    3.64592370    0.00000000   3       3  Cu.mpn
    0.00000000    7.29184739    0.00000000   3       4  Cu.mpn
    2.57805737    7.29184739    0.00000000   3       5  Cu.mpn
    5.15611474    7.29184739    0.00000000   3       6  Cu.mpn
    0.00000000   10.93777108    0.00000000   3       7  Cu.mpn
    2.57805737   10.93777108    0.00000000   3       8  Cu.mpn
    5.15611474   10.93777108    0.00000000   3       9  Cu.mpn
   -1.28902868    1.82296185    1.28902868   3      10  Cu.mpn
    1.28902868    1.82296185    1.28902868   3      11  Cu.mpn
    3.86708605    1.82296185    1.28902868   3      12  Cu.mpn
   -1.28902868    5.46888554    1.28902868   3      13  Cu.mpn
    1.28908160    5.46888554    1.28902868   3      14  Cu.mpn
    3.86708605    5.46888554    1.28902868   3      15  Cu.mpn
   -1.28902868    9.11480924    1.28902868   3      16  Cu.mpn
    1.28908160    9.11480924    1.28902868   3      17  Cu.mpn
    3.86708605    9.11480924    1.28902868   3      18  Cu.mpn
    0.00099794   10.93843456    2.57224705   3      19  Cu.mpn
    0.00165283    7.29167864    2.55246374   3      20  Cu.mpn
    5.15539355   10.93741320    2.57232656   3      21  Cu.mpn
    2.57989158   10.93771866    2.57167519   3      22  Cu.mpn
    2.57619359    7.28980915    2.56266235   3      23  Cu.mpn
    5.16212934    7.28958012    2.56236976   3      24  Cu.mpn
    0.00229321    3.64222333    2.54956466   3      25  Cu.mpn
    2.57669860    3.64552103    2.56482573   3      26  Cu.mpn
    5.16023325    3.64496844    2.56470287   3      27  Cu.mpn
    3.86967896    9.11207245    3.73517560   3      28  Cu.mpn
    1.31683072    5.47904776    3.79450689   3      29  Cu.mpn
   -1.31198350    5.47669155    3.79460898   3      30  Cu.mpn
    3.86808431    1.82482535    3.73708844   3      31  Cu.mpn
    3.87112292    5.46928368    3.72391099   3      32  Cu.mpn
   -1.28486467    1.81891719    3.74173762   3      33  Cu.mpn
    1.28743421    1.81966077    3.74172926   3      34  Cu.mpn
    1.29302935    9.11490170    3.73435973   3      35  Cu.mpn
   -1.28584250    9.11424222    3.73411255   3      36  Cu.mpn
    0.00438134    5.09980737    5.23675761   2      37  O.mpn
    0.00606646    4.10731207    5.25020603   1      38  H.mpn

outcell: Unit cell vectors (Ang):
        7.734172    0.000000    0.000000
        0.000000   10.937771    0.000000
        0.000000    0.000000   13.078057

outcell: Cell vector modules (Ang)   :    7.734172   10.937771   13.078057
outcell: Cell angles (23,13,12) (deg):     90.0000     90.0000     90.0000
outcell: Cell volume (Ang**3)        :   1106.3331
 Folding of H and S is implicitly performed
<dSpData1D:S at geom step 0
  <sparsity:sparsity for geom step 0
    nrows_g=337 nrows=48 sparsity=.1386 nnzs=15743, refcount: 7>
  <dData1D:(new from dSpData1D) n=15743, refcount: 1>
refcount: 1>
new_DM -- step:     1
Initializing Density Matrix...

Attempting to read DM from file... Failed...
DM filled with atomic data:
<dSpData2D:DM initialized from atoms
  <sparsity:sparsity for geom step 0
    nrows_g=337 nrows=48 sparsity=.1386 nnzs=15743, refcount: 8>
  <dData2D:DM n=15743 m=1, refcount: 1>
refcount: 1>

No. of atoms with KB's overlaping orbs in proc 0. Max # of overlaps:      37     237
New grid distribution:   1
           1       1:   24    1:   18    1:   10
           2       1:   24    1:   18   11:   20
           3       1:   24    1:   18   21:   30
           4       1:   24    1:   18   31:   40
           5       1:   24   19:   36    1:   10
           6       1:   24   19:   36   11:   20
           7       1:   24   19:   36   21:   30
           8       1:   24   19:   36   31:   40

InitMesh: MESH =    48 x    72 x    80 =      276480
InitMesh: (bp) =    24 x    36 x    40 =       34560
InitMesh: Mesh cutoff (required, used) =   100.000   103.418 Ry
ExtMesh (bp) on 0 =    72 x    70 x    58 =      292320
New grid distribution:   2
           1       1:   12   19:   36    9:   40
           2      13:   24    1:   18    9:   40
           3      13:   24    1:   18    1:    8
           4      13:   24   19:   36    1:    8
           5       1:   12    1:   18    9:   40
           6      13:   24   19:   36    9:   40
           7       1:   12    1:   18    1:    8
           8       1:   12   19:   36    1:    8
New grid distribution:   3
           1       1:   12   19:   36   18:   40
           2      13:   24    1:   18    1:   17
           3      13:   24    1:   18   18:   40
           4      13:   24   19:   36    1:   17
           5       1:   12    1:   18   18:   40
           6       1:   12    1:   18    1:   17
           7      13:   24   19:   36   18:   40
           8       1:   12   19:   36    1:   17
Setting up quadratic distribution...
ExtMesh (bp) on 0 =    60 x    70 x    80 =      336000
PhiOnMesh: Number of (b)points on node 0 =                 6912
PhiOnMesh: nlist on node 0 =               202830

efield: SlabDipoleCorrection enabled.
efield: A dipole layer will be introduced in the vacuum
efield: region to compensate the system dipole
Dipole moment in unit cell   =      0.0000      0.0000      0.0000 D
Electric field for dipole correction =   -0.000000   -0.000000   -0.000000 eV/Ang/e

stepf: Fermi-Dirac step function
Dipole moment in unit cell   =      0.0000      0.0000      6.1638 D
Electric field for dipole correction =   -0.000000   -0.000000   -0.209891 eV/Ang/e

siesta: Program's energy decomposition (eV):
siesta: Ebs     =     -7883.268537
siesta: Eions   =     52362.821533
siesta: Ena     =       742.344894
siesta: Ekin    =     44354.209186
siesta: Enl     =    -28713.537268
siesta: Eso     =         0.000000
siesta: Eldau   =         0.000000
siesta: DEna    =       609.946585
siesta: DUscf   =       380.762529
siesta: DUext   =         0.134673
siesta: Exc     =    -19457.320533
siesta: eta*DQ  =         0.000000
siesta: Emadel  =         0.000000
siesta: Emeta   =         0.000000
siesta: Emolmec =         0.000000
siesta: Ekinion =         0.000000
siesta: Eharris =    -53942.825432
siesta: Etot    =    -54446.281467
siesta: FreeEng =    -54446.415909

        iscf     Eharris(eV)        E_KS(eV)     FreeEng(eV)     dDmax    Ef(eV) dHmax(eV)
   scf:    1   -53942.825432   -54446.281467   -54446.415909  0.566612 -0.339073 27.328655
timer: Routine,Calls,Time,% = IterSCF        1       0.992  16.75
Dipole moment in unit cell   =     -0.0000     -0.0000    -49.2845 D
Electric field for dipole correction =    0.000000    0.000000    1.678253 eV/Ang/e
   scf:    2   -54559.735056   -54584.748977   -54584.926001  0.340560 -1.994185 25.059862
Dipole moment in unit cell   =      0.0000      0.0000     96.4473 D
Electric field for dipole correction =   -0.000000   -0.000000   -3.284261 eV/Ang/e
   scf:    3   -54266.663551   -54541.545107   -54541.645495  0.304068 -2.392559 28.506576
Dipole moment in unit cell   =      0.0000      0.0000      4.6165 D
Electric field for dipole correction =   -0.000000   -0.000000   -0.157204 eV/Ang/e
   scf:    4   -54694.131609   -54664.144893   -54664.205452  0.224175 -2.709958  6.457174
Dipole moment in unit cell   =      0.0000      0.0000      0.9331 D
Electric field for dipole correction =   -0.000000   -0.000000   -0.031775 eV/Ang/e
   scf:    5   -54692.863804   -54681.138266   -54681.208519  0.127010 -3.134043  3.071383
Dipole moment in unit cell   =     -0.0000     -0.0000     -1.8691 D
Electric field for dipole correction =    0.000000    0.000000    0.063648 eV/Ang/e
   scf:    6   -54689.564562   -54685.824053   -54685.885470  0.047388 -3.334895  1.286340
Dipole moment in unit cell   =     -0.0000     -0.0000     -1.9462 D
Electric field for dipole correction =    0.000000    0.000000    0.066273 eV/Ang/e
   scf:    7   -54688.584672   -54687.266151   -54687.326676  0.022715 -3.394483  1.038683
Dipole moment in unit cell   =     -0.0000     -0.0000     -1.6641 D
Electric field for dipole correction =    0.000000    0.000000    0.056666 eV/Ang/e
   scf:    8   -54689.972645   -54689.000231   -54689.059900  0.053406 -3.493810  0.518272
Dipole moment in unit cell   =     -0.0000     -0.0000     -0.8589 D
Electric field for dipole correction =    0.000000    0.000000    0.029246 eV/Ang/e
   scf:    9   -54689.041043   -54689.032431   -54689.092232  0.008294 -3.469544  0.183920
Dipole moment in unit cell   =     -0.0000     -0.0000     -1.0797 D
Electric field for dipole correction =    0.000000    0.000000    0.036765 eV/Ang/e
   scf:   10   -54689.035003   -54689.034171   -54689.093967  0.001414 -3.465637  0.176455
Dipole moment in unit cell   =     -0.0000     -0.0000     -0.9963 D
Electric field for dipole correction =    0.000000    0.000000    0.033927 eV/Ang/e
   scf:   11   -54689.035058   -54689.035138   -54689.094987  0.001577 -3.451431  0.097426
Dipole moment in unit cell   =     -0.0000     -0.0000     -1.0313 D
Electric field for dipole correction =    0.000000    0.000000    0.035117 eV/Ang/e
   scf:   12   -54689.036337   -54689.035808   -54689.095674  0.001363 -3.447781  0.063468
Dipole moment in unit cell   =     -0.0000     -0.0000     -1.0067 D
Electric field for dipole correction =    0.000000    0.000000    0.034281 eV/Ang/e
   scf:   13   -54689.036371   -54689.036151   -54689.096051  0.001165 -3.442177  0.019058
Dipole moment in unit cell   =     -0.0000     -0.0000     -1.0102 D
Electric field for dipole correction =    0.000000    0.000000    0.034399 eV/Ang/e
   scf:   14   -54689.036344   -54689.036255   -54689.096170  0.000325 -3.440062  0.013487
Dipole moment in unit cell   =     -0.0000     -0.0000     -1.0005 D
Electric field for dipole correction =    0.000000    0.000000    0.034070 eV/Ang/e
   scf:   15   -54689.036328   -54689.036302   -54689.096239  0.000433 -3.436873  0.003901
Dipole moment in unit cell   =     -0.0000     -0.0000     -1.0001 D
Electric field for dipole correction =    0.000000    0.000000    0.034055 eV/Ang/e
   scf:   16   -54689.036310   -54689.036307   -54689.096245  0.000093 -3.436490  0.003265
Dipole moment in unit cell   =     -0.0000     -0.0000     -0.9983 D
Electric field for dipole correction =    0.000000    0.000000    0.033995 eV/Ang/e
   scf:   17   -54689.036317   -54689.036312   -54689.096249  0.000094 -3.436317  0.001916
Dipole moment in unit cell   =     -0.0000     -0.0000     -0.9966 D
Electric field for dipole correction =    0.000000    0.000000    0.033938 eV/Ang/e
   scf:   18   -54689.036316   -54689.036314   -54689.096251  0.000065 -3.436238  0.000850

SCF Convergence by DM+H criterion
max |DM_out - DM_in|         :     0.0000648649
max |H_out - H_in|      (eV) :     0.0008500415
SCF cycle converged after 18 iterations

Using DM_out to compute the final energy and forces
No. of atoms with KB's overlaping orbs in proc 0. Max # of overlaps:      37     237
Dipole moment in unit cell   =     -0.0000     -0.0000     -0.9966 D
Electric field for dipole correction =    0.000000    0.000000    0.033938 eV/Ang/e

siesta: E_KS(eV) =           -54689.0363

siesta: E_KS - E_eggbox =    -54689.0363

siesta: Atomic forces (eV/Ang):
     1   -0.000216   -0.067046    0.163880
     2    0.008401   -0.076853    0.212520
     3   -0.009221   -0.076938    0.212392
     4   -0.000219    0.066631    0.127618
     5   -0.001192    0.077453    0.206382
     6    0.000115    0.077638    0.206032
     7   -0.000473    0.034620    0.292588
     8    0.177397   -0.025867    0.117296
     9   -0.177384   -0.026199    0.117580
    10    0.028951   -0.029744   -0.415786
    11   -0.025196   -0.029606   -0.417705
    12    0.002217   -0.030354   -0.425777
    13    0.007222   -0.001322   -0.201725
    14   -0.002683    0.001238   -0.202809
    15    0.002172    0.008388   -0.428394
    16    0.014150    0.019671   -0.440677
    17   -0.013708    0.018035   -0.439462
    18    0.002553    0.031180   -0.488764
    19   -0.007634   -0.002465    0.661952
    20   -0.006796    0.035748    0.384428
    21    0.007247    0.020191    0.652182
    22   -0.010859    0.019838    0.655937
    23    0.061792    0.030441    0.614007
    24   -0.092632    0.034310    0.608755
    25   -0.015987   -0.015402    0.310669
    26    0.038548   -0.062144    0.622647
    27   -0.056414   -0.064950    0.617420
    28   -0.033667   -0.088162    0.792701
    29   -0.338166   -0.010751    0.171828
    30    0.314523   -0.004754    0.148943
    31   -0.011049    0.051278    0.758877
    32   -0.052346   -0.046218    1.086806
    33   -0.024881    0.004850    0.769141
    34   -0.013523   -0.001217    0.772278
    35   -0.104185   -0.011350    0.867744
    36   -0.002849   -0.009282    0.871402
    37   -0.075971    1.950514   -0.325795
    38    0.002523   -1.758387   -0.058350
----------------------------------------
   Tot   -0.409438    0.043012    9.178761
----------------------------------------
   Max    1.950514
   Res    0.389921    sqrt( Sum f_i^2 / 3N )
----------------------------------------
   Max    1.950514    constrained

Stress-tensor-Voigt (kbar):      -15.18       -5.01      -22.31       -0.00       -0.32       -0.03
(Free)E + p*V (eV/cell)   -54679.3146
Target enthalpy (eV/cell)   -54689.0963

mulliken: Atomic and Orbital Populations:

Species: H.mpn               
Atom  Qatom  Qorb
               1s      1Ppy    1Ppz    1Ppx    
  38  0.869   0.667   0.060   0.080   0.062

Species: O.mpn               
Atom  Qatom  Qorb
               2s      2py     2pz     2px     2Pdxy   2Pdyz   2Pdz2   2Pdxz   
               2Pdx2-y2
  37  6.462   1.764   1.400   1.636   1.624   0.002   0.004   0.011   0.003
              0.017

Species: Cu.mpn              
Atom  Qatom  Qorb
               4s      3dxy    3dyz    3dz2    3dxz    3dx2-y2 4Ppy    4Ppz    
               4Ppx    
   1 10.954   0.826   1.895   1.944   1.928   1.946   1.917   0.160   0.125
              0.212
   2 10.948   0.818   1.899   1.944   1.927   1.946   1.917   0.162   0.123
              0.213
   3 10.948   0.818   1.899   1.944   1.926   1.946   1.917   0.162   0.123
              0.213
   4 10.955   0.827   1.896   1.944   1.927   1.947   1.917   0.158   0.121
              0.217
   5 10.948   0.820   1.899   1.944   1.925   1.947   1.916   0.163   0.120
              0.214
   6 10.948   0.820   1.899   1.944   1.925   1.947   1.916   0.163   0.120
              0.214
   7 10.945   0.811   1.899   1.943   1.927   1.947   1.917   0.165   0.126
              0.210
   8 10.965   0.840   1.896   1.942   1.924   1.945   1.916   0.159   0.127
              0.217
   9 10.966   0.841   1.895   1.941   1.924   1.945   1.916   0.159   0.127
              0.217
  10 11.043   0.821   1.899   1.862   1.932   1.923   1.931   0.229   0.221
              0.224
  11 11.043   0.821   1.899   1.862   1.932   1.923   1.931   0.229   0.221
              0.224
  12 11.042   0.819   1.891   1.871   1.931   1.921   1.931   0.228   0.225
              0.223
  13 11.047   0.828   1.895   1.873   1.926   1.917   1.930   0.232   0.219
              0.225
  14 11.047   0.828   1.895   1.873   1.926   1.917   1.930   0.232   0.219
              0.225
  15 11.044   0.830   1.896   1.873   1.932   1.909   1.933   0.233   0.210
              0.226
  16 11.043   0.823   1.899   1.864   1.932   1.922   1.931   0.228   0.220
              0.225
  17 11.043   0.823   1.899   1.864   1.932   1.922   1.931   0.228   0.220
              0.225
  18 11.044   0.820   1.892   1.870   1.931   1.919   1.931   0.231   0.227
              0.223
  19 11.047   0.822   1.891   1.871   1.935   1.915   1.931   0.230   0.230
              0.223
  20 11.049   0.836   1.881   1.888   1.935   1.918   1.930   0.228   0.208
              0.223
  21 11.045   0.825   1.889   1.871   1.939   1.922   1.929   0.230   0.218
              0.222
  22 11.045   0.825   1.889   1.871   1.939   1.922   1.929   0.230   0.218
              0.222
  23 11.049   0.826   1.885   1.873   1.936   1.921   1.930   0.231   0.222
              0.226
  24 11.049   0.826   1.885   1.873   1.936   1.921   1.930   0.231   0.222
              0.226
  25 11.035   0.823   1.885   1.893   1.931   1.920   1.929   0.225   0.207
              0.221
  26 11.044   0.825   1.889   1.871   1.936   1.922   1.929   0.230   0.218
              0.223
  27 11.044   0.825   1.889   1.871   1.936   1.922   1.929   0.230   0.218
              0.223
  28 10.946   0.821   1.891   1.945   1.922   1.947   1.916   0.162   0.130
              0.212
  29 10.815   0.716   1.905   1.940   1.913   1.899   1.920   0.135   0.208
              0.181
  30 10.816   0.716   1.905   1.940   1.913   1.899   1.920   0.135   0.208
              0.181
  31 10.948   0.820   1.891   1.945   1.921   1.947   1.916   0.163   0.130
              0.215
  32 10.930   0.820   1.895   1.946   1.912   1.956   1.917   0.167   0.122
              0.196
  33 10.968   0.845   1.889   1.944   1.920   1.945   1.917   0.158   0.132
              0.218
  34 10.968   0.845   1.889   1.944   1.920   1.945   1.917   0.158   0.132
              0.218
  35 10.949   0.830   1.890   1.946   1.919   1.947   1.916   0.160   0.128
              0.213
  36 10.949   0.830   1.890   1.946   1.919   1.947   1.916   0.160   0.127
              0.213

mulliken: Qtot =      403.000

cgvc: WARNING: CG file not found

                     ====================================
                        Begin CG opt. move =      1
                     ====================================

outcoor: Atomic coordinates (Ang):                          
    0.00000000    3.64592370    0.00000000   3       1  Cu.mpn
    2.57805737    3.64592370    0.00000000   3       2  Cu.mpn
    5.15611474    3.64592370    0.00000000   3       3  Cu.mpn
    0.00000000    7.29184739    0.00000000   3       4  Cu.mpn
    2.57805737    7.29184739    0.00000000   3       5  Cu.mpn
    5.15611474    7.29184739    0.00000000   3       6  Cu.mpn
    0.00000000   10.93777108    0.00000000   3       7  Cu.mpn
    2.57805737   10.93777108    0.00000000   3       8  Cu.mpn
    5.15611474   10.93777108    0.00000000   3       9  Cu.mpn
   -1.28902868    1.82296185    1.28902868   3      10  Cu.mpn
    1.28902868    1.82296185    1.28902868   3      11  Cu.mpn
    3.86708605    1.82296185    1.28902868   3      12  Cu.mpn
   -1.28902868    5.46888554    1.28902868   3      13  Cu.mpn
    1.28908160    5.46888554    1.28902868   3      14  Cu.mpn
    3.86708605    5.46888554    1.28902868   3      15  Cu.mpn
   -1.28902868    9.11480924    1.28902868   3      16  Cu.mpn
    1.28908160    9.11480924    1.28902868   3      17  Cu.mpn
    3.86708605    9.11480924    1.28902868   3      18  Cu.mpn
    0.00079257   10.93836823    2.59005575   3      19  Cu.mpn
    0.00147000    7.29264038    2.56280613   3      20  Cu.mpn
    5.15558851   10.93795639    2.58987240   3      21  Cu.mpn
    2.57959944   10.93825237    2.58932207   3      22  Cu.mpn
    2.57785601    7.29062812    2.57918117   3      23  Cu.mpn
    5.15963725    7.29050319    2.57874729   3      24  Cu.mpn
    0.00186311    3.64180897    2.55792268   3      25  Cu.mpn
    2.57773568    3.64384915    2.58157701   3      26  Cu.mpn
    5.15871554    3.64322108    2.58131351   3      27  Cu.mpn
    3.86877319    9.10970059    3.75650189   3      28  Cu.mpn
    1.30773293    5.47875852    3.79912964   3      29  Cu.mpn
   -1.30352179    5.47656365    3.79861604   3      30  Cu.mpn
    3.86778705    1.82620489    3.75750475   3      31  Cu.mpn
    3.86971465    5.46804027    3.75314967   3      32  Cu.mpn
   -1.28553404    1.81904767    3.76243004   3      33  Cu.mpn
    1.28707041    1.81962802    3.76250608   3      34  Cu.mpn
    1.29022642    9.11459634    3.75770490   3      35  Cu.mpn
   -1.28591914    9.11399251    3.75755614   3      36  Cu.mpn
    0.00233747    5.15228264    5.22799265   2      37  O.mpn
    0.00613434    4.06000566    5.24863622   1      38  H.mpn

outcell: Unit cell vectors (Ang):
        7.734172    0.000000    0.000000
        0.000000   10.937771    0.000000
        0.000000    0.000000   13.078057

outcell: Cell vector modules (Ang)   :    7.734172   10.937771   13.078057
outcell: Cell angles (23,13,12) (deg):     90.0000     90.0000     90.0000
outcell: Cell volume (Ang**3)        :   1106.3331
 Folding of H and S is implicitly performed
<dSpData1D:S at geom step 1
  <sparsity:sparsity for geom step 1
    nrows_g=337 nrows=48 sparsity=.1386 nnzs=15743, refcount: 7>
  <dData1D:(new from dSpData1D) n=15743, refcount: 1>
refcount: 1>
new_DM -- step:     2
Re-using DM from previous geometries...
Number of DMs in history: 1
 DM extrapolation coefficients: 
1   1.00000
New DM after history re-use:
<dSpData2D:SpM extrapolated using coords
  <sparsity:sparsity for geom step 1
    nrows_g=337 nrows=48 sparsity=.1386 nnzs=15743, refcount: 8>
  <dData2D:(temp array for extrapolation) n=15743 m=1, refcount: 1>
refcount: 1>
No. of atoms with KB's overlaping orbs in proc 0. Max # of overlaps:      37     237
New grid distribution:   1
           1       1:   24    1:   18    1:   10
           2       1:   24    1:   18   11:   20
           3       1:   24    1:   18   21:   30
           4       1:   24    1:   18   31:   40
           5       1:   24   19:   36    1:   10
           6       1:   24   19:   36   11:   20
           7       1:   24   19:   36   21:   30
           8       1:   24   19:   36   31:   40

InitMesh: MESH =    48 x    72 x    80 =      276480
InitMesh: (bp) =    24 x    36 x    40 =       34560
InitMesh: Mesh cutoff (required, used) =   100.000   103.418 Ry
ExtMesh (bp) on 0 =    72 x    70 x    58 =      292320
New grid distribution:   2
           1       1:   12   19:   36    9:   40
           2      13:   24    1:   18    9:   40
           3      13:   24    1:   18    1:    8
           4      13:   24   19:   36    1:    8
           5       1:   12    1:   18    9:   40
           6      13:   24   19:   36    9:   40
           7       1:   12    1:   18    1:    8
           8       1:   12   19:   36    1:    8
New grid distribution:   3
           1       1:   12   19:   36   18:   40
           2      13:   24    1:   18    1:   17
           3      13:   24    1:   18   18:   40
           4      13:   24   19:   36    1:   17
           5       1:   12    1:   18   18:   40
           6       1:   12    1:   18    1:   17
           7      13:   24   19:   36   18:   40
           8       1:   12   19:   36    1:   17
Setting up quadratic distribution...
ExtMesh (bp) on 0 =    60 x    70 x    80 =      336000
PhiOnMesh: Number of (b)points on node 0 =                 6912
PhiOnMesh: nlist on node 0 =               203411
Dipole moment in unit cell   =      0.0000     -0.0000     -0.2558 D
Electric field for dipole correction =   -0.000000    0.000000    0.008712 eV/Ang/e
Dipole moment in unit cell   =      0.0000     -0.0000     -9.8167 D
Electric field for dipole correction =   -0.000000    0.000000    0.334281 eV/Ang/e

        iscf     Eharris(eV)        E_KS(eV)     FreeEng(eV)     dDmax    Ef(eV) dHmax(eV)
   scf:    1   -54687.303188   -54688.347103   -54688.406743  0.071582 -3.398848  3.258053
Dipole moment in unit cell   =     -0.0000      0.0000    215.6225 D
Electric field for dipole correction =    0.000000   -0.000000   -7.342458 eV/Ang/e
   scf:    2   -52897.010835   -54096.656221   -54096.786175  0.954335 -3.269426 85.819073
Dipole moment in unit cell   =      0.0000     -0.0000     -3.7215 D
Electric field for dipole correction =   -0.000000    0.000000    0.126727 eV/Ang/e
   scf:    3   -54698.651847   -54689.071724   -54689.131219  0.956359 -3.419999  1.370706
Dipole moment in unit cell   =      0.0000     -0.0000     -2.5387 D
Electric field for dipole correction =   -0.000000    0.000000    0.086447 eV/Ang/e
   scf:    4   -54689.216704   -54689.154278   -54689.213814  0.007231 -3.426345  0.924130
Dipole moment in unit cell   =      0.0000     -0.0000     -1.4318 D
Electric field for dipole correction =   -0.000000    0.000000    0.048755 eV/Ang/e
   scf:    5   -54689.223775   -54689.197453   -54689.257063  0.008372 -3.432729  0.441396
Dipole moment in unit cell   =      0.0000     -0.0000     -0.9726 D
Electric field for dipole correction =   -0.000000    0.000000    0.033120 eV/Ang/e
   scf:    6   -54689.210486   -54689.207057   -54689.266744  0.006410 -3.436135  0.146900
Dipole moment in unit cell   =      0.0000     -0.0000     -1.0008 D
Electric field for dipole correction =   -0.000000    0.000000    0.034079 eV/Ang/e
   scf:    7   -54689.208100   -54689.207621   -54689.267310  0.001285 -3.435722  0.124758
Dipole moment in unit cell   =      0.0000     -0.0000     -0.9470 D
Electric field for dipole correction =   -0.000000    0.000000    0.032247 eV/Ang/e
   scf:    8   -54689.208717   -54689.208281   -54689.267969  0.002790 -3.435728  0.033517
Dipole moment in unit cell   =      0.0000     -0.0000     -0.9385 D
Electric field for dipole correction =   -0.000000    0.000000    0.031958 eV/Ang/e
   scf:    9   -54689.208418   -54689.208356   -54689.268038  0.000763 -3.435771  0.013536
Dipole moment in unit cell   =      0.0000     -0.0000     -0.9397 D
Electric field for dipole correction =   -0.000000    0.000000    0.031999 eV/Ang/e
   scf:   10   -54689.208407   -54689.208384   -54689.268061  0.000394 -3.435883  0.005567
Dipole moment in unit cell   =      0.0000     -0.0000     -0.9353 D
Electric field for dipole correction =   -0.000000    0.000000    0.031849 eV/Ang/e
   scf:   11   -54689.208398   -54689.208391   -54689.268067  0.000199 -3.435954  0.002229
Dipole moment in unit cell   =      0.0000     -0.0000     -0.9373 D
Electric field for dipole correction =   -0.000000    0.000000    0.031918 eV/Ang/e
   scf:   12   -54689.208397   -54689.208394   -54689.268068  0.000043 -3.436003  0.001990
Dipole moment in unit cell   =      0.0000     -0.0000     -0.9358 D
Electric field for dipole correction =   -0.000000    0.000000    0.031867 eV/Ang/e
   scf:   13   -54689.208400   -54689.208397   -54689.268070  0.000109 -3.436062  0.000843
Dipole moment in unit cell   =      0.0000     -0.0000     -0.9360 D
Electric field for dipole correction =   -0.000000    0.000000    0.031872 eV/Ang/e
   scf:   14   -54689.208399   -54689.208398   -54689.268070  0.000023 -3.436076  0.000642

SCF Convergence by DM+H criterion
max |DM_out - DM_in|         :     0.0000234096
max |H_out - H_in|      (eV) :     0.0006417470
SCF cycle converged after 14 iterations

Using DM_out to compute the final energy and forces
No. of atoms with KB's overlaping orbs in proc 0. Max # of overlaps:      37     237
Dipole moment in unit cell   =      0.0000     -0.0000     -0.9360 D
Electric field for dipole correction =   -0.000000    0.000000    0.031872 eV/Ang/e

siesta: E_KS(eV) =           -54689.2084

siesta: Atomic forces (eV/Ang):
     1   -0.000036   -0.068591    0.192483
     2    0.013883   -0.077503    0.257854
     3   -0.014676   -0.077420    0.257057
     4    0.000024    0.068656    0.162051
     5    0.003932    0.077102    0.255380
     6   -0.004922    0.077028    0.254368
     7   -0.000129    0.033379    0.338712
     8    0.178159   -0.023881    0.166004
     9   -0.178297   -0.023948    0.166549
    10    0.027808   -0.039461   -0.326582
    11   -0.024494   -0.038929   -0.327444
    12    0.001833   -0.039203   -0.331849
    13   -0.005148   -0.000938   -0.167025
    14    0.008418    0.000884   -0.166931
    15    0.002177    0.004820   -0.296234
    16    0.013033    0.027319   -0.330238
    17   -0.012049    0.026150   -0.329509
    18    0.002231    0.040461   -0.384806
    19   -0.011757   -0.005836    0.532649
    20   -0.011289    0.083606    0.450271
    21   -0.000237    0.006384    0.525925
    22   -0.012537    0.005733    0.531658
    23    0.051707    0.026584    0.568236
    24   -0.088002    0.027581    0.571118
    25   -0.014671   -0.060836    0.403478
    26    0.037923   -0.050460    0.556963
    27   -0.063352   -0.048382    0.555330
    28   -0.027962   -0.055495    0.353873
    29   -0.044685    0.071280   -0.057870
    30    0.014549    0.071048   -0.063107
    31   -0.010575    0.035924    0.324925
    32   -0.047577   -0.037877    0.587606
    33   -0.004273    0.027696    0.301417
    34   -0.020945    0.021821    0.301684
    35   -0.051743   -0.012342    0.360180
    36   -0.012061   -0.007765    0.372245
    37   -0.016285   -1.771882    0.182786
    38   -0.009445    1.633182   -0.090569
----------------------------------------
   Tot   -0.331471   -0.074114    6.658636
----------------------------------------
   Max    1.771882
   Res    0.308595    sqrt( Sum f_i^2 / 3N )
----------------------------------------
   Max    1.771882    constrained

Stress-tensor-Voigt (kbar):      -15.52        0.93      -21.11       -0.02       -0.09        0.02
(Free)E + p*V (eV/cell)   -54681.0519
Target enthalpy (eV/cell)   -54689.2681

mulliken: Atomic and Orbital Populations:

Species: H.mpn               
Atom  Qatom  Qorb
               1s      1Ppy    1Ppz    1Ppx    
  38  0.882   0.705   0.056   0.069   0.052

Species: O.mpn               
Atom  Qatom  Qorb
               2s      2py     2pz     2px     2Pdxy   2Pdyz   2Pdz2   2Pdxz   
               2Pdx2-y2
  37  6.441   1.793   1.356   1.636   1.621   0.002   0.004   0.010   0.004
              0.014

Species: Cu.mpn              
Atom  Qatom  Qorb
               4s      3dxy    3dyz    3dz2    3dxz    3dx2-y2 4Ppy    4Ppz    
               4Ppx    
   1 10.954   0.827   1.895   1.944   1.928   1.947   1.917   0.160   0.125
              0.212
   2 10.948   0.818   1.899   1.944   1.927   1.946   1.917   0.162   0.123
              0.213
   3 10.949   0.818   1.899   1.944   1.927   1.946   1.917   0.162   0.122
              0.213
   4 10.955   0.828   1.896   1.944   1.928   1.947   1.917   0.158   0.121
              0.216
   5 10.947   0.819   1.899   1.944   1.926   1.947   1.916   0.163   0.120
              0.214
   6 10.947   0.819   1.899   1.944   1.926   1.947   1.916   0.163   0.120
              0.214
   7 10.945   0.811   1.899   1.943   1.928   1.947   1.917   0.165   0.125
              0.210
   8 10.966   0.841   1.895   1.941   1.924   1.945   1.916   0.160   0.126
              0.217
   9 10.966   0.841   1.895   1.941   1.924   1.945   1.916   0.160   0.126
              0.217
  10 11.043   0.822   1.900   1.862   1.933   1.923   1.931   0.229   0.221
              0.224
  11 11.043   0.822   1.900   1.862   1.933   1.923   1.931   0.229   0.221
              0.224
  12 11.042   0.820   1.892   1.871   1.932   1.920   1.931   0.228   0.224
              0.223
  13 11.047   0.828   1.896   1.873   1.926   1.917   1.931   0.232   0.218
              0.226
  14 11.047   0.828   1.896   1.873   1.926   1.917   1.931   0.232   0.218
              0.226
  15 11.043   0.830   1.897   1.873   1.933   1.909   1.933   0.233   0.210
              0.226
  16 11.043   0.823   1.900   1.863   1.932   1.922   1.931   0.227   0.219
              0.225
  17 11.043   0.823   1.900   1.863   1.932   1.922   1.931   0.227   0.219
              0.225
  18 11.044   0.820   1.893   1.870   1.931   1.919   1.931   0.230   0.226
              0.223
  19 11.047   0.822   1.891   1.871   1.935   1.915   1.931   0.229   0.228
              0.223
  20 11.048   0.836   1.881   1.888   1.936   1.918   1.931   0.228   0.207
              0.224
  21 11.044   0.825   1.890   1.870   1.940   1.922   1.930   0.229   0.217
              0.223
  22 11.044   0.825   1.890   1.870   1.940   1.922   1.930   0.229   0.217
              0.223
  23 11.048   0.827   1.886   1.873   1.936   1.921   1.930   0.231   0.220
              0.226
  24 11.048   0.826   1.886   1.873   1.936   1.921   1.930   0.231   0.220
              0.226
  25 11.037   0.824   1.885   1.893   1.930   1.920   1.929   0.225   0.208
              0.222
  26 11.044   0.825   1.890   1.871   1.936   1.922   1.929   0.230   0.217
              0.223
  27 11.044   0.825   1.890   1.871   1.936   1.922   1.929   0.230   0.217
              0.223
  28 10.947   0.823   1.891   1.945   1.922   1.947   1.916   0.162   0.129
              0.212
  29 10.819   0.719   1.906   1.940   1.912   1.894   1.919   0.136   0.211
              0.181
  30 10.820   0.719   1.906   1.940   1.912   1.894   1.919   0.137   0.211
              0.181
  31 10.949   0.822   1.891   1.945   1.921   1.947   1.916   0.163   0.130
              0.214
  32 10.926   0.819   1.895   1.946   1.912   1.957   1.917   0.166   0.121
              0.194
  33 10.970   0.845   1.889   1.943   1.921   1.945   1.917   0.158   0.134
              0.218
  34 10.970   0.845   1.889   1.943   1.921   1.945   1.917   0.158   0.134
              0.218
  35 10.949   0.829   1.890   1.946   1.920   1.947   1.916   0.160   0.127
              0.214
  36 10.949   0.829   1.891   1.946   1.920   1.947   1.916   0.160   0.127
              0.214

mulliken: Qtot =      403.000

                     ====================================
                        Begin CG opt. move =      2
                     ====================================

outcoor: Atomic coordinates (Ang):                          
    0.00000000    3.64592370    0.00000000   3       1  Cu.mpn
    2.57805737    3.64592370    0.00000000   3       2  Cu.mpn
    5.15611474    3.64592370    0.00000000   3       3  Cu.mpn
    0.00000000    7.29184739    0.00000000   3       4  Cu.mpn
    2.57805737    7.29184739    0.00000000   3       5  Cu.mpn
    5.15611474    7.29184739    0.00000000   3       6  Cu.mpn
    0.00000000   10.93777108    0.00000000   3       7  Cu.mpn
    2.57805737   10.93777108    0.00000000   3       8  Cu.mpn
    5.15611474   10.93777108    0.00000000   3       9  Cu.mpn
   -1.28902868    1.82296185    1.28902868   3      10  Cu.mpn
    1.28902868    1.82296185    1.28902868   3      11  Cu.mpn
    3.86708605    1.82296185    1.28902868   3      12  Cu.mpn
   -1.28902868    5.46888554    1.28902868   3      13  Cu.mpn
    1.28908160    5.46888554    1.28902868   3      14  Cu.mpn
    3.86708605    5.46888554    1.28902868   3      15  Cu.mpn
   -1.28902868    9.11480924    1.28902868   3      16  Cu.mpn
    1.28908160    9.11480924    1.28902868   3      17  Cu.mpn
    3.86708605    9.11480924    1.28902868   3      18  Cu.mpn
    0.00080891   10.93837351    2.58863865   3      19  Cu.mpn
    0.00148454    7.29256385    2.56198316   3      20  Cu.mpn
    5.15557300   10.93791317    2.58847622   3      21  Cu.mpn
    2.57962269   10.93820990    2.58791785   3      22  Cu.mpn
    2.57772373    7.29056296    2.57786672   3      23  Cu.mpn
    5.15983555    7.29042973    2.57744408   3      24  Cu.mpn
    0.00189733    3.64184194    2.55725761   3      25  Cu.mpn
    2.57765316    3.64398218    2.58024406   3      26  Cu.mpn
    5.15883631    3.64336012    2.57999175   3      27  Cu.mpn
    3.86884527    9.10988932    3.75480489   3      28  Cu.mpn
    1.30845687    5.47878154    3.79876180   3      29  Cu.mpn
   -1.30419511    5.47657383    3.79829718   3      30  Cu.mpn
    3.86781071    1.82609512    3.75588016   3      31  Cu.mpn
    3.86982671    5.46813921    3.75082305   3      32  Cu.mpn
   -1.28548078    1.81903729    3.76078348   3      33  Cu.mpn
    1.28709936    1.81963063    3.76085280   3      34  Cu.mpn
    1.29044946    9.11462064    3.75584725   3      35  Cu.mpn
   -1.28591304    9.11401238    3.75569066   3      36  Cu.mpn
    0.00250011    5.14810702    5.22869010   2      37  O.mpn
    0.00612893    4.06376998    5.24876113   1      38  H.mpn

outcell: Unit cell vectors (Ang):
        7.734172    0.000000    0.000000
        0.000000   10.937771    0.000000
        0.000000    0.000000   13.078057

outcell: Cell vector modules (Ang)   :    7.734172   10.937771   13.078057
outcell: Cell angles (23,13,12) (deg):     90.0000     90.0000     90.0000
outcell: Cell volume (Ang**3)        :   1106.3331
 Folding of H and S is implicitly performed
<dSpData1D:S at geom step 2
  <sparsity:sparsity for geom step 2
    nrows_g=337 nrows=48 sparsity=.1386 nnzs=15743, refcount: 7>
  <dData1D:(new from dSpData1D) n=15743, refcount: 1>
refcount: 1>
new_DM -- step:     3
Re-using DM from previous geometries...
Number of DMs in history: 1
 DM extrapolation coefficients: 
1   1.00000
New DM after history re-use:
<dSpData2D:SpM extrapolated using coords
  <sparsity:sparsity for geom step 2
    nrows_g=337 nrows=48 sparsity=.1386 nnzs=15743, refcount: 8>
  <dData2D:(temp array for extrapolation) n=15743 m=1, refcount: 1>
refcount: 1>
No. of atoms with KB's overlaping orbs in proc 0. Max # of overlaps:      37     237
New grid distribution:   1
           1       1:   24    1:   18    1:   10
           2       1:   24    1:   18   11:   20
           3       1:   24    1:   18   21:   30
           4       1:   24    1:   18   31:   40
           5       1:   24   19:   36    1:   10
           6       1:   24   19:   36   11:   20
           7       1:   24   19:   36   21:   30
           8       1:   24   19:   36   31:   40

InitMesh: MESH =    48 x    72 x    80 =      276480
InitMesh: (bp) =    24 x    36 x    40 =       34560
InitMesh: Mesh cutoff (required, used) =   100.000   103.418 Ry
ExtMesh (bp) on 0 =    72 x    70 x    58 =      292320
New grid distribution:   2
           1       1:   12   19:   36    9:   40
           2      13:   24    1:   18    9:   40
           3      13:   24    1:   18    1:    8
           4      13:   24   19:   36    1:    8
           5       1:   12    1:   18    9:   40
           6      13:   24   19:   36    9:   40
           7       1:   12    1:   18    1:    8
           8       1:   12   19:   36    1:    8
New grid distribution:   3
           1       1:   12   19:   36   18:   40
           2      13:   24    1:   18    1:   17
           3      13:   24    1:   18   18:   40
           4      13:   24   19:   36    1:   17
           5       1:   12    1:   18   18:   40
           6       1:   12    1:   18    1:   17
           7      13:   24   19:   36   18:   40
           8       1:   12   19:   36    1:   17
Setting up quadratic distribution...
ExtMesh (bp) on 0 =    60 x    70 x    80 =      336000
PhiOnMesh: Number of (b)points on node 0 =                 6912
PhiOnMesh: nlist on node 0 =               203383
Dipole moment in unit cell   =      0.0000      0.0000     -0.9931 D
Electric field for dipole correction =   -0.000000   -0.000000    0.033819 eV/Ang/e
Dipole moment in unit cell   =      0.0000      0.0000     -0.2441 D
Electric field for dipole correction =   -0.000000   -0.000000    0.008313 eV/Ang/e

        iscf     Eharris(eV)        E_KS(eV)     FreeEng(eV)     dDmax    Ef(eV) dHmax(eV)
   scf:    1   -54689.137779   -54689.204791   -54689.264479  0.005371 -3.438938  0.262900
Dipole moment in unit cell   =      0.0000      0.0000    -12.4748 D
Electric field for dipole correction =   -0.000000   -0.000000    0.424797 eV/Ang/e
   scf:    2   -54685.166862   -54687.887539   -54687.947239  0.034071 -3.418955  3.354661
Dipole moment in unit cell   =      0.0000      0.0000     -0.9036 D
Electric field for dipole correction =   -0.000000   -0.000000    0.030770 eV/Ang/e
   scf:    3   -54689.280957   -54689.209971   -54689.269659  0.031697 -3.437257  0.053941
Dipole moment in unit cell   =      0.0000      0.0000     -0.9271 D
Electric field for dipole correction =   -0.000000   -0.000000    0.031570 eV/Ang/e
   scf:    4   -54689.210089   -54689.210037   -54689.269724  0.000275 -3.436865  0.037983
Dipole moment in unit cell   =      0.0000      0.0000     -0.9341 D
Electric field for dipole correction =   -0.000000   -0.000000    0.031808 eV/Ang/e
   scf:    5   -54689.210122   -54689.210088   -54689.269775  0.000524 -3.436286  0.016576
Dipole moment in unit cell   =      0.0000      0.0000     -0.9400 D
Electric field for dipole correction =   -0.000000   -0.000000    0.032010 eV/Ang/e
   scf:    6   -54689.210104   -54689.210099   -54689.269787  0.000422 -3.436008  0.003415
Dipole moment in unit cell   =      0.0000      0.0000     -0.9396 D
Electric field for dipole correction =   -0.000000   -0.000000    0.031995 eV/Ang/e
   scf:    7   -54689.210099   -54689.210099   -54689.269788  0.000082 -3.435986  0.001961
Dipole moment in unit cell   =      0.0000      0.0000     -0.9401 D
Electric field for dipole correction =   -0.000000   -0.000000    0.032014 eV/Ang/e
   scf:    8   -54689.210099   -54689.210099   -54689.269789  0.000084 -3.435964  0.000508

SCF Convergence by DM+H criterion
max |DM_out - DM_in|         :     0.0000836371
max |H_out - H_in|      (eV) :     0.0005075551
SCF cycle converged after 8 iterations

Using DM_out to compute the final energy and forces
No. of atoms with KB's overlaping orbs in proc 0. Max # of overlaps:      37     237
Dipole moment in unit cell   =      0.0000      0.0000     -0.9401 D
Electric field for dipole correction =   -0.000000   -0.000000    0.032014 eV/Ang/e

siesta: E_KS(eV) =           -54689.2101

siesta: Atomic forces (eV/Ang):
     1   -0.000051   -0.068460    0.190186
     2    0.013417   -0.077463    0.254364
     3   -0.014215   -0.077392    0.253610
     4    0.000005    0.068510    0.159310
     5    0.003468    0.077117    0.251574
     6   -0.004470    0.077061    0.250601
     7   -0.000158    0.033481    0.335172
     8    0.178137   -0.024026    0.162187
     9   -0.178262   -0.024111    0.162708
    10    0.027897   -0.038687   -0.333395
    11   -0.024545   -0.038186   -0.334334
    12    0.001866   -0.038524   -0.339105
    13   -0.004139   -0.000999   -0.169798
    14    0.007520    0.000880   -0.169784
    15    0.002178    0.005092   -0.306166
    16    0.013093    0.026761   -0.338679
    17   -0.012135    0.025557   -0.337922
    18    0.002262    0.039785   -0.392769
    19   -0.010286   -0.003075    0.550990
    20   -0.010187    0.079036    0.450306
    21    0.001726    0.007160    0.541568
    22   -0.011230    0.007121    0.548429
    23    0.053068    0.029012    0.574810
    24   -0.089450    0.029343    0.578171
    25   -0.016592   -0.055065    0.397591
    26    0.036829   -0.049871    0.565874
    27   -0.063475   -0.048937    0.563985
    28   -0.028421   -0.059700    0.394366
    29   -0.066362    0.067361   -0.043655
    30    0.040829    0.063790   -0.048917
    31   -0.011809    0.032701    0.368285
    32   -0.047911   -0.039584    0.639902
    33   -0.007349    0.025670    0.339552
    34   -0.021670    0.018292    0.341976
    35   -0.061673   -0.011669    0.415281
    36   -0.017355   -0.006672    0.423433
    37   -0.019810   -1.574067    0.139663
    38   -0.010505    1.447477   -0.086800
----------------------------------------
   Tot   -0.349767   -0.075281    6.952571
----------------------------------------
   Max    1.574067
   Res    0.295826    sqrt( Sum f_i^2 / 3N )
----------------------------------------
   Max    1.574067    constrained

Stress-tensor-Voigt (kbar):      -15.52        0.52      -21.28       -0.03       -0.10        0.02
(Free)E + p*V (eV/cell)   -54680.9182
Target enthalpy (eV/cell)   -54689.2698

mulliken: Atomic and Orbital Populations:

Species: H.mpn               
Atom  Qatom  Qorb
               1s      1Ppy    1Ppz    1Ppx    
  38  0.881   0.702   0.057   0.070   0.053

Species: O.mpn               
Atom  Qatom  Qorb
               2s      2py     2pz     2px     2Pdxy   2Pdyz   2Pdz2   2Pdxz   
               2Pdx2-y2
  37  6.443   1.791   1.360   1.636   1.621   0.002   0.004   0.010   0.004
              0.014

Species: Cu.mpn              
Atom  Qatom  Qorb
               4s      3dxy    3dyz    3dz2    3dxz    3dx2-y2 4Ppy    4Ppz    
               4Ppx    
   1 10.954   0.827   1.895   1.944   1.928   1.946   1.917   0.160   0.125
              0.212
   2 10.948   0.818   1.899   1.944   1.927   1.946   1.917   0.162   0.123
              0.213
   3 10.949   0.818   1.899   1.944   1.927   1.946   1.917   0.162   0.123
              0.213
   4 10.955   0.828   1.896   1.944   1.928   1.947   1.917   0.158   0.121
              0.216
   5 10.948   0.819   1.899   1.944   1.926   1.947   1.916   0.163   0.120
              0.214
   6 10.948   0.819   1.899   1.944   1.926   1.947   1.916   0.163   0.120
              0.214
   7 10.945   0.811   1.899   1.943   1.928   1.947   1.917   0.165   0.125
              0.210
   8 10.966   0.841   1.895   1.941   1.924   1.945   1.916   0.160   0.126
              0.217
   9 10.966   0.841   1.895   1.941   1.924   1.945   1.916   0.160   0.126
              0.217
  10 11.043   0.822   1.899   1.862   1.933   1.923   1.931   0.229   0.221
              0.224
  11 11.043   0.822   1.899   1.862   1.933   1.923   1.931   0.229   0.221
              0.224
  12 11.042   0.820   1.892   1.871   1.932   1.920   1.931   0.228   0.224
              0.223
  13 11.047   0.828   1.896   1.873   1.926   1.917   1.931   0.232   0.218
              0.226
  14 11.047   0.828   1.896   1.873   1.926   1.917   1.931   0.232   0.218
              0.226
  15 11.043   0.830   1.897   1.873   1.933   1.909   1.933   0.233   0.210
              0.226
  16 11.043   0.823   1.900   1.863   1.932   1.922   1.931   0.227   0.219
              0.225
  17 11.043   0.823   1.900   1.863   1.932   1.922   1.931   0.227   0.219
              0.225
  18 11.044   0.820   1.893   1.870   1.931   1.919   1.931   0.230   0.226
              0.223
  19 11.047   0.822   1.891   1.871   1.935   1.915   1.931   0.229   0.229
              0.223
  20 11.048   0.836   1.881   1.888   1.936   1.918   1.931   0.228   0.207
              0.224
  21 11.044   0.825   1.889   1.870   1.940   1.922   1.930   0.229   0.217
              0.223
  22 11.044   0.825   1.890   1.870   1.940   1.922   1.930   0.229   0.217
              0.223
  23 11.049   0.826   1.885   1.873   1.936   1.921   1.930   0.231   0.220
              0.226
  24 11.049   0.826   1.885   1.873   1.936   1.921   1.930   0.231   0.220
              0.226
  25 11.037   0.824   1.885   1.893   1.930   1.920   1.929   0.225   0.208
              0.222
  26 11.044   0.825   1.890   1.871   1.936   1.922   1.929   0.230   0.217
              0.223
  27 11.044   0.825   1.890   1.871   1.936   1.922   1.929   0.230   0.217
              0.223
  28 10.947   0.823   1.891   1.945   1.922   1.947   1.916   0.162   0.129
              0.212
  29 10.819   0.719   1.906   1.940   1.912   1.894   1.919   0.136   0.211
              0.181
  30 10.819   0.719   1.906   1.940   1.912   1.894   1.919   0.137   0.211
              0.181
  31 10.949   0.822   1.891   1.945   1.921   1.947   1.916   0.163   0.130
              0.214
  32 10.926   0.819   1.895   1.946   1.912   1.957   1.917   0.166   0.121
              0.194
  33 10.970   0.845   1.889   1.943   1.921   1.945   1.917   0.158   0.133
              0.218
  34 10.970   0.845   1.889   1.943   1.921   1.945   1.917   0.158   0.133
              0.218
  35 10.949   0.829   1.890   1.946   1.920   1.947   1.916   0.160   0.127
              0.214
  36 10.949   0.829   1.890   1.946   1.920   1.947   1.916   0.160   0.127
              0.214

mulliken: Qtot =      403.000

cgvc: Finished line minimization    1.  Mean atomic displacement =    0.0299

                     ====================================
                        Begin CG opt. move =      3
                     ====================================

outcoor: Atomic coordinates (Ang):                          
    0.00000000    3.64592370    0.00000000   3       1  Cu.mpn
    2.57805737    3.64592370    0.00000000   3       2  Cu.mpn
    5.15611474    3.64592370    0.00000000   3       3  Cu.mpn
    0.00000000    7.29184739    0.00000000   3       4  Cu.mpn
    2.57805737    7.29184739    0.00000000   3       5  Cu.mpn
    5.15611474    7.29184739    0.00000000   3       6  Cu.mpn
    0.00000000   10.93777108    0.00000000   3       7  Cu.mpn
    2.57805737   10.93777108    0.00000000   3       8  Cu.mpn
    5.15611474   10.93777108    0.00000000   3       9  Cu.mpn
   -1.28902868    1.82296185    1.28902868   3      10  Cu.mpn
    1.28902868    1.82296185    1.28902868   3      11  Cu.mpn
    3.86708605    1.82296185    1.28902868   3      12  Cu.mpn
   -1.28902868    5.46888554    1.28902868   3      13  Cu.mpn
    1.28908160    5.46888554    1.28902868   3      14  Cu.mpn
    3.86708605    5.46888554    1.28902868   3      15  Cu.mpn
   -1.28902868    9.11480924    1.28902868   3      16  Cu.mpn
    1.28908160    9.11480924    1.28902868   3      17  Cu.mpn
    3.86708605    9.11480924    1.28902868   3      18  Cu.mpn
    0.00041692   10.93825352    2.61348576   3      19  Cu.mpn
    0.00110795    7.29522738    2.57990823   3      20  Cu.mpn
    5.15572953   10.93841233    2.61292201   3      21  Cu.mpn
    2.57915630   10.93870267    2.61260476   3      22  Cu.mpn
    2.58008699    7.29180414    2.60262333   3      23  Cu.mpn
    5.15602740    7.29173865    2.60221096   3      24  Cu.mpn
    0.00120915    3.64013082    2.57264684   3      25  Cu.mpn
    2.57922731    3.64169932    2.60489245   3      26  Cu.mpn
    5.15627575    3.64105963    2.60450996   3      27  Cu.mpn
    3.86757087    9.10694705    3.77744035   3      28  Cu.mpn
    1.30153285    5.48042460    3.80020484   3      29  Cu.mpn
   -1.29831554    5.47821235    3.79925097   3      30  Cu.mpn
    3.86732591    1.82775218    3.77730158   3      31  Cu.mpn
    3.86774545    5.46637451    3.78451768   3      32  Cu.mpn
   -1.28605636    1.81979954    3.78159042   3      33  Cu.mpn
    1.28631247    1.82010271    3.78177246   3      34  Cu.mpn
    1.28721053    9.11413501    3.78018519   3      35  Cu.mpn
   -1.28642184    9.11369223    3.78030288   3      36  Cu.mpn
    0.00081313    5.13556219    5.22747983   2      37  O.mpn
    0.00588556    4.07584233    5.24554554   1      38  H.mpn

outcell: Unit cell vectors (Ang):
        7.734172    0.000000    0.000000
        0.000000   10.937771    0.000000
        0.000000    0.000000   13.078057

outcell: Cell vector modules (Ang)   :    7.734172   10.937771   13.078057
outcell: Cell angles (23,13,12) (deg):     90.0000     90.0000     90.0000
outcell: Cell volume (Ang**3)        :   1106.3331
 Folding of H and S is implicitly performed
<dSpData1D:S at geom step 3
  <sparsity:sparsity for geom step 3
    nrows_g=337 nrows=48 sparsity=.1386 nnzs=15743, refcount: 7>
  <dData1D:(new from dSpData1D) n=15743, refcount: 1>
refcount: 1>
new_DM -- step:     4
Re-using DM from previous geometries...
Number of DMs in history: 1
 DM extrapolation coefficients: 
1   1.00000
New DM after history re-use:
<dSpData2D:SpM extrapolated using coords
  <sparsity:sparsity for geom step 3
    nrows_g=337 nrows=48 sparsity=.1386 nnzs=15743, refcount: 8>
  <dData2D:(temp array for extrapolation) n=15743 m=1, refcount: 1>
refcount: 1>
No. of atoms with KB's overlaping orbs in proc 0. Max # of overlaps:      37     237
New grid distribution:   1
           1       1:   24    1:   18    1:   10
           2       1:   24    1:   18   11:   20
           3       1:   24    1:   18   21:   30
           4       1:   24    1:   18   31:   40
           5       1:   24   19:   36    1:   10
           6       1:   24   19:   36   11:   20
           7       1:   24   19:   36   21:   30
           8       1:   24   19:   36   31:   40

InitMesh: MESH =    48 x    72 x    80 =      276480
InitMesh: (bp) =    24 x    36 x    40 =       34560
InitMesh: Mesh cutoff (required, used) =   100.000   103.418 Ry
ExtMesh (bp) on 0 =    72 x    70 x    58 =      292320
New grid distribution:   2
           1       1:   12   19:   36    9:   40
           2      13:   24    1:   18    9:   40
           3      13:   24    1:   18    1:    8
           4      13:   24   19:   36    1:    8
           5       1:   12    1:   18    9:   40
           6      13:   24   19:   36    9:   40
           7       1:   12    1:   18    1:    8
           8       1:   12   19:   36    1:    8
New grid distribution:   3
           1       1:   12   19:   36   18:   40
           2      13:   24    1:   18    1:   17
           3      13:   24    1:   18   18:   40
           4      13:   24   19:   36    1:   17
           5       1:   12    1:   18   18:   40
           6       1:   12    1:   18    1:   17
           7      13:   24   19:   36   18:   40
           8       1:   12   19:   36    1:   17
Setting up quadratic distribution...
ExtMesh (bp) on 0 =    60 x    70 x    80 =      336000
PhiOnMesh: Number of (b)points on node 0 =                 6912
PhiOnMesh: nlist on node 0 =               203854
Dipole moment in unit cell   =      0.0000     -0.0000     -1.1059 D
Electric field for dipole correction =   -0.000000    0.000000    0.037660 eV/Ang/e
Dipole moment in unit cell   =     -0.0000      0.0000      1.5993 D
Electric field for dipole correction =    0.000000   -0.000000   -0.054460 eV/Ang/e

        iscf     Eharris(eV)        E_KS(eV)     FreeEng(eV)     dDmax    Ef(eV) dHmax(eV)
   scf:    1   -54689.247892   -54689.265859   -54689.325455  0.015698 -3.465774  0.961868
Dipole moment in unit cell   =      0.0000     -0.0000    -43.6624 D
Electric field for dipole correction =   -0.000000    0.000000    1.486810 eV/Ang/e
   scf:    2   -54633.769780   -54671.175998   -54671.236728  0.120252 -3.333884 12.685782
Dipole moment in unit cell   =      0.0000     -0.0000     -0.8280 D
Electric field for dipole correction =   -0.000000    0.000000    0.028197 eV/Ang/e
   scf:    3   -54690.318716   -54689.343769   -54689.403464  0.109385 -3.452990  0.149573
Dipole moment in unit cell   =      0.0000     -0.0000     -0.9066 D
Electric field for dipole correction =   -0.000000    0.000000    0.030871 eV/Ang/e
   scf:    4   -54689.345770   -54689.345014   -54689.404719  0.001398 -3.449352  0.092651
Dipole moment in unit cell   =      0.0000     -0.0000     -0.9111 D
Electric field for dipole correction =   -0.000000    0.000000    0.031026 eV/Ang/e
[...]

outcell: Cell vector modules (Ang)   :    7.734172   10.937771   13.078057
outcell: Cell angles (23,13,12) (deg):     90.0000     90.0000     90.0000
outcell: Cell volume (Ang**3)        :   1106.3331
 Folding of H and S is implicitly performed
<dSpData1D:S at geom step 76
  <sparsity:sparsity for geom step 76
    nrows_g=337 nrows=48 sparsity=.1386 nnzs=15743, refcount: 7>
  <dData1D:(new from dSpData1D) n=15743, refcount: 1>
refcount: 1>
new_DM -- step:    77
Re-using DM from previous geometries...
Number of DMs in history: 1
 DM extrapolation coefficients: 
1   1.00000
New DM after history re-use:
<dSpData2D:SpM extrapolated using coords
  <sparsity:sparsity for geom step 76
    nrows_g=337 nrows=48 sparsity=.1386 nnzs=15743, refcount: 8>
  <dData2D:(temp array for extrapolation) n=15743 m=1, refcount: 1>
refcount: 1>
No. of atoms with KB's overlaping orbs in proc 0. Max # of overlaps:      37     237
New grid distribution:   1
           1       1:   24    1:   18    1:   10
           2       1:   24    1:   18   11:   20
           3       1:   24    1:   18   21:   30
           4       1:   24    1:   18   31:   40
           5       1:   24   19:   36    1:   10
           6       1:   24   19:   36   11:   20
           7       1:   24   19:   36   21:   30
           8       1:   24   19:   36   31:   40

InitMesh: MESH =    48 x    72 x    80 =      276480
InitMesh: (bp) =    24 x    36 x    40 =       34560
InitMesh: Mesh cutoff (required, used) =   100.000   103.418 Ry
ExtMesh (bp) on 0 =    72 x    70 x    58 =      292320
New grid distribution:   2
           1       1:   12   19:   36    9:   40
           2      13:   24    1:   18    9:   40
           3      13:   24    1:   18    1:    8
           4      13:   24   19:   36    1:    8
           5       1:   12    1:   18    9:   40
           6      13:   24   19:   36    9:   40
           7       1:   12    1:   18    1:    8
           8       1:   12   19:   36    1:    8
New grid distribution:   3
           1       1:   12   19:   36   18:   40
           2      13:   24    1:   18    1:   17
           3      13:   24    1:   18   18:   40
           4      13:   24   19:   36    1:   17
           5       1:   12    1:   18   18:   40
           6       1:   12    1:   18    1:   17
           7      13:   24   19:   36   18:   40
           8       1:   12   19:   36    1:   17
Setting up quadratic distribution...
ExtMesh (bp) on 0 =    60 x    70 x    80 =      336000
PhiOnMesh: Number of (b)points on node 0 =                 6912
PhiOnMesh: nlist on node 0 =               203862
Dipole moment in unit cell   =     -0.0000     -0.0000     -1.0034 D
Electric field for dipole correction =    0.000000    0.000000    0.034170 eV/Ang/e
Dipole moment in unit cell   =     -0.0000     -0.0000     -1.0329 D
Electric field for dipole correction =    0.000000    0.000000    0.035173 eV/Ang/e

        iscf     Eharris(eV)        E_KS(eV)     FreeEng(eV)     dDmax    Ef(eV) dHmax(eV)
   scf:    1   -54689.453023   -54689.457336   -54689.517073  0.001995 -3.451838  0.022412
Dipole moment in unit cell   =     -0.0000     -0.0000     -0.4835 D
Electric field for dipole correction =    0.000000    0.000000    0.016465 eV/Ang/e
   scf:    2   -54689.446576   -54689.453881   -54689.513562  0.002620 -3.452991  0.201847
Dipole moment in unit cell   =     -0.0000     -0.0000     -1.0086 D
Electric field for dipole correction =    0.000000    0.000000    0.034345 eV/Ang/e
   scf:    3   -54689.457494   -54689.457378   -54689.517108  0.002406 -3.451935  0.005371
Dipole moment in unit cell   =     -0.0000     -0.0000     -1.0031 D
Electric field for dipole correction =    0.000000    0.000000    0.034157 eV/Ang/e
   scf:    4   -54689.457386   -54689.457382   -54689.517111  0.000058 -3.451949  0.001593
Dipole moment in unit cell   =     -0.0000     -0.0000     -1.0040 D
Electric field for dipole correction =    0.000000    0.000000    0.034187 eV/Ang/e
   scf:    5   -54689.457384   -54689.457383   -54689.517112  0.000032 -3.451938  0.000851

SCF Convergence by DM+H criterion
max |DM_out - DM_in|         :     0.0000320316
max |H_out - H_in|      (eV) :     0.0008513605
SCF cycle converged after 5 iterations

Using DM_out to compute the final energy and forces
No. of atoms with KB's overlaping orbs in proc 0. Max # of overlaps:      37     237
Dipole moment in unit cell   =     -0.0000     -0.0000     -1.0040 D
Electric field for dipole correction =    0.000000    0.000000    0.034187 eV/Ang/e

siesta: E_KS(eV) =           -54689.4574

siesta: Atomic forces (eV/Ang):
     1    0.000033   -0.064943    0.324074
     2    0.016230   -0.072403    0.337206
     3   -0.016232   -0.072397    0.337230
     4   -0.000002    0.063075    0.265120
     5    0.000355    0.075534    0.331743
     6   -0.000268    0.075492    0.331912
     7   -0.000007    0.051924    0.389090
     8    0.176133   -0.038830    0.245980
     9   -0.176091   -0.039000    0.246046
    10    0.053653    0.002769   -0.203897
    11   -0.053455    0.002898   -0.203909
    12   -0.000025   -0.004286   -0.205484
    13    0.010071    0.011187    0.116986
    14   -0.012259    0.011136    0.117374
    15    0.000555    0.009655   -0.170365
    16    0.010741   -0.022919   -0.222021
    17   -0.012431   -0.023168   -0.221497
    18    0.000105    0.010787   -0.290301
    19    0.000070    0.002073    0.000891
    20   -0.000091    0.011589   -0.004661
    21   -0.002614   -0.000260    0.000577
    22    0.001401   -0.000437    0.001777
    23    0.007508    0.002768    0.000543
    24   -0.008489   -0.000459   -0.001079
    25   -0.001030    0.006222    0.004636
    26   -0.000756    0.001715   -0.000133
    27   -0.000377    0.003806   -0.002165
    28    0.000105   -0.000014   -0.010594
    29    0.005581    0.014215    0.000841
    30   -0.003128    0.016223    0.008907
    31    0.000995    0.003621   -0.003200
    32   -0.000403    0.002418   -0.016855
    33   -0.002217   -0.002429    0.000807
    34    0.002138   -0.001744    0.000106
    35    0.000760   -0.006917    0.001812
    36   -0.001085   -0.006085    0.001791
    37   -0.009986    0.009096   -0.005486
    38    0.000035    0.003298   -0.001174
----------------------------------------
   Tot   -0.014476    0.035213    1.502628
----------------------------------------
   Max    0.389090
   Res    0.109537    sqrt( Sum f_i^2 / 3N )
----------------------------------------
   Max    0.016855    constrained

Stress-tensor-Voigt (kbar):      -14.45        2.13      -16.31       -0.00       -0.10        0.00
(Free)E + p*V (eV/cell)   -54682.9284
Target enthalpy (eV/cell)   -54689.5171

mulliken: Atomic and Orbital Populations:

Species: H.mpn               
Atom  Qatom  Qorb
               1s      1Ppy    1Ppz    1Ppx    
  38  0.898   0.694   0.062   0.084   0.058

Species: O.mpn               
Atom  Qatom  Qorb
               2s      2py     2pz     2px     2Pdxy   2Pdyz   2Pdz2   2Pdxz   
               2Pdx2-y2
  37  6.455   1.778   1.373   1.646   1.621   0.002   0.006   0.010   0.005
              0.015

Species: Cu.mpn              
Atom  Qatom  Qorb
               4s      3dxy    3dyz    3dz2    3dxz    3dx2-y2 4Ppy    4Ppz    
               4Ppx    
   1 10.954   0.826   1.895   1.944   1.930   1.947   1.916   0.160   0.126
              0.210
   2 10.949   0.819   1.899   1.944   1.928   1.947   1.917   0.160   0.123
              0.213
   3 10.949   0.819   1.899   1.944   1.928   1.947   1.917   0.160   0.123
              0.213
   4 10.956   0.828   1.896   1.944   1.928   1.947   1.916   0.157   0.122
              0.218
   5 10.950   0.823   1.898   1.944   1.927   1.947   1.916   0.162   0.120
              0.213
   6 10.950   0.823   1.898   1.944   1.927   1.947   1.916   0.162   0.120
              0.213
   7 10.946   0.815   1.899   1.943   1.928   1.947   1.917   0.165   0.123
              0.210
   8 10.964   0.839   1.895   1.942   1.925   1.946   1.916   0.161   0.123
              0.218
   9 10.964   0.839   1.895   1.942   1.925   1.946   1.916   0.161   0.123
              0.218
  10 11.041   0.821   1.901   1.860   1.933   1.923   1.931   0.228   0.218
              0.224
  11 11.041   0.821   1.901   1.860   1.933   1.923   1.931   0.228   0.218
              0.224
  12 11.039   0.819   1.893   1.871   1.932   1.920   1.932   0.227   0.221
              0.224
  13 11.048   0.831   1.896   1.871   1.932   1.916   1.931   0.231   0.216
              0.225
  14 11.048   0.831   1.896   1.871   1.932   1.916   1.931   0.231   0.216
              0.225
  15 11.047   0.834   1.897   1.871   1.935   1.909   1.933   0.232   0.208
              0.228
  16 11.041   0.823   1.902   1.863   1.933   1.921   1.931   0.226   0.217
              0.226
  17 11.041   0.823   1.902   1.863   1.933   1.921   1.931   0.226   0.217
              0.226
  18 11.044   0.820   1.894   1.869   1.932   1.917   1.931   0.230   0.225
              0.224
  19 11.047   0.824   1.892   1.870   1.937   1.915   1.932   0.229   0.225
              0.224
  20 11.053   0.838   1.882   1.887   1.937   1.916   1.931   0.227   0.210
              0.226
  21 11.044   0.826   1.890   1.870   1.940   1.922   1.930   0.230   0.215
              0.223
  22 11.044   0.826   1.890   1.870   1.940   1.922   1.930   0.230   0.215
              0.223
  23 11.051   0.828   1.887   1.871   1.937   1.920   1.930   0.231   0.221
              0.226
  24 11.050   0.828   1.887   1.871   1.937   1.920   1.930   0.231   0.221
              0.226
  25 11.020   0.819   1.889   1.896   1.929   1.920   1.928   0.223   0.193
              0.222
  26 11.042   0.826   1.893   1.869   1.937   1.922   1.929   0.229   0.214
              0.224
  27 11.043   0.826   1.893   1.869   1.937   1.922   1.929   0.229   0.214
              0.224
  28 10.948   0.825   1.890   1.945   1.923   1.948   1.916   0.162   0.130
              0.210
  29 10.802   0.715   1.903   1.931   1.923   1.897   1.922   0.130   0.203
              0.177
  30 10.802   0.715   1.903   1.931   1.923   1.897   1.922   0.130   0.203
              0.177
  31 10.949   0.824   1.890   1.946   1.921   1.947   1.916   0.163   0.129
              0.215
  32 10.936   0.823   1.895   1.945   1.914   1.954   1.916   0.167   0.124
              0.198
  33 10.971   0.847   1.887   1.943   1.921   1.945   1.917   0.159   0.132
              0.220
  34 10.971   0.847   1.887   1.943   1.921   1.945   1.917   0.159   0.132
              0.220
  35 10.951   0.827   1.890   1.946   1.920   1.947   1.916   0.163   0.128
              0.213
  36 10.951   0.827   1.890   1.946   1.920   1.947   1.916   0.163   0.128
              0.213

mulliken: Qtot =      403.000

outcoor: Relaxed atomic coordinates (Ang):                  
    0.00000000    3.64592370    0.00000000   3       1  Cu.mpn
    2.57805737    3.64592370    0.00000000   3       2  Cu.mpn
    5.15611474    3.64592370    0.00000000   3       3  Cu.mpn
    0.00000000    7.29184739    0.00000000   3       4  Cu.mpn
    2.57805737    7.29184739    0.00000000   3       5  Cu.mpn
    5.15611474    7.29184739    0.00000000   3       6  Cu.mpn
    0.00000000   10.93777108    0.00000000   3       7  Cu.mpn
    2.57805737   10.93777108    0.00000000   3       8  Cu.mpn
    5.15611474   10.93777108    0.00000000   3       9  Cu.mpn
   -1.28902868    1.82296185    1.28902868   3      10  Cu.mpn
    1.28902868    1.82296185    1.28902868   3      11  Cu.mpn
    3.86708605    1.82296185    1.28902868   3      12  Cu.mpn
   -1.28902868    5.46888554    1.28902868   3      13  Cu.mpn
    1.28908160    5.46888554    1.28902868   3      14  Cu.mpn
    3.86708605    5.46888554    1.28902868   3      15  Cu.mpn
   -1.28902868    9.11480924    1.28902868   3      16  Cu.mpn
    1.28908160    9.11480924    1.28902868   3      17  Cu.mpn
    3.86708605    9.11480924    1.28902868   3      18  Cu.mpn
    0.00000870   10.93506284    2.61525205   3      19  Cu.mpn
   -0.00001647    7.28492667    2.60802023   3      20  Cu.mpn
    5.15434518   10.93757248    2.61561104   3      21  Cu.mpn
    2.57988381   10.93762553    2.61554413   3      22  Cu.mpn
    2.57748328    7.28001459    2.61381666   3      23  Cu.mpn
    5.15675365    7.28026385    2.61388684   3      24  Cu.mpn
    0.00008100    3.66185342    2.60660792   3      25  Cu.mpn
    2.57461542    3.65150517    2.61448767   3      26  Cu.mpn
    5.15959264    3.65120991    2.61453672   3      27  Cu.mpn
    3.86707011    9.09589218    3.77280503   3      28  Cu.mpn
    1.31113695    5.52133614    3.91993491   3      29  Cu.mpn
   -1.31094179    5.52000384    3.91954012   3      30  Cu.mpn
    3.86703564    1.83258693    3.77179266   3      31  Cu.mpn
    3.86714878    5.45462710    3.78135721   3      32  Cu.mpn
   -1.28579992    1.82276745    3.77531130   3      33  Cu.mpn
    1.28585824    1.82283163    3.77532378   3      34  Cu.mpn
    1.28753414    9.10883372    3.77395213   3      35  Cu.mpn
   -1.28750156    9.10881098    3.77398112   3      36  Cu.mpn
    0.00057237    4.95112830    5.24542718   2      37  O.mpn
    0.00095559    3.92347608    5.08301517   1      38  H.mpn

siesta: Eigenvalues (eV):
  ik is    eps
   1  1 -23.07 -11.41 -10.72 -10.29 -10.22  -9.33  -9.30  -9.02  -8.71  -8.64
         -8.62  -8.61  -8.52  -8.47  -8.21  -8.21  -8.15  -8.00  -7.90  -7.89
         -7.82  -7.75  -7.72  -7.72  -7.72  -7.63  -7.58  -7.54  -7.51  -7.45
         -7.43  -7.42  -7.40  -7.40  -7.39  -7.35  -7.34  -7.33  -7.32  -7.31
         -7.26  -7.22  -7.17  -7.11  -7.09  -7.07  -7.06  -7.05  -7.05  -7.03
         -7.03  -6.96  -6.95  -6.94  -6.93  -6.91  -6.84  -6.83  -6.72  -6.71
         -6.69  -6.69  -6.66  -6.63  -6.63  -6.61  -6.61  -6.60  -6.54  -6.53
         -6.52  -6.51  -6.50  -6.49  -6.49  -6.48  -6.46  -6.45  -6.44  -6.44
         -6.42  -6.40  -6.40  -6.40  -6.35  -6.33  -6.32  -6.32  -6.32  -6.30
         -6.28  -6.24  -6.24  -6.24  -6.22  -6.18  -6.17  -6.16  -6.16  -6.13
         -6.12  -6.11  -6.09  -6.06  -6.04  -6.00  -5.95  -5.92  -5.91  -5.90
         -5.88  -5.86  -5.83  -5.82  -5.82  -5.80  -5.79  -5.76  -5.76  -5.74
         -5.71  -5.70  -5.69  -5.67  -5.67  -5.66  -5.66  -5.65  -5.64  -5.63
         -5.62  -5.61  -5.57  -5.54  -5.54  -5.53  -5.51  -5.51  -5.48  -5.45
         -5.43  -5.41  -5.41  -5.38  -5.37  -5.37  -5.36  -5.35  -5.34  -5.32
         -5.32  -5.31  -5.31  -5.29  -5.29  -5.28  -5.27  -5.26  -5.26  -5.25
         -5.24  -5.22  -5.22  -5.20  -5.18  -5.18  -5.18  -5.16  -5.16  -5.15
         -5.14  -5.14  -5.12  -5.12  -5.11  -5.11  -5.10  -5.10  -5.09  -5.08
         -5.08  -5.07  -5.05  -5.05  -5.04  -5.03  -5.02  -5.00  -4.99  -4.98
         -4.97  -4.97  -4.93  -4.92  -4.90  -4.90  -4.59  -4.42  -4.30  -4.17
         -3.92  -3.42  -3.42  -3.31  -3.29  -3.20  -2.85  -2.15  -2.13  -2.08
         -2.06  -2.04  -2.03  -1.76  -1.64  -0.87  -0.74  -0.71  -0.63  -0.61
         -0.44  -0.38   0.24   0.40   0.79   0.83   0.87   0.90   1.05   2.07
          2.12   2.17   2.29   2.51   2.62   3.24   3.27   3.29   3.36   3.47
          3.55   3.58   3.65   3.84   4.02   4.14   4.41   5.09   5.13   5.20
          5.52   5.60   5.83   6.04   6.18   6.42   6.45   6.69   6.80   7.05
          7.44   8.04   8.04   8.07   8.14   8.55   8.79   9.04   9.04   9.33
         10.15  10.45  10.46  10.71  10.72  10.92  10.92  11.05  11.07  11.10
         11.94  11.96  12.13  12.33  12.65  12.94  12.95  13.30  13.45  13.58
         13.78  13.87  14.45  14.48  14.99  15.07  15.34  15.40  15.44  15.74
         16.10  16.68  17.48  17.52  17.65  17.69  18.19  18.36  18.39  18.59
         18.83  18.97  19.06  19.39  19.45  19.77  19.83  19.90  20.00  20.62
         20.80  20.92  21.13  22.22  22.31  22.56  22.65  23.48  23.76  24.14
         27.22  32.00  36.49  36.51  41.57  44.53  49.83
siesta: Fermi energy =      -3.451938 eV

siesta: Program's energy decomposition (eV):
siesta: Ebs     =     -2565.348951
siesta: Eions   =     52362.821533
siesta: Ena     =       743.490155
siesta: Ekin    =     48580.221579
siesta: Enl     =    -31844.750202
siesta: Eso     =         0.000000
siesta: Eldau   =         0.000000
siesta: DEna    =       229.175605
siesta: DUscf   =        41.777236
siesta: DUext   =         0.003573
siesta: Exc     =    -20076.553795
siesta: eta*DQ  =         0.000000
siesta: Emadel  =         0.000000
siesta: Emeta   =         0.000000
siesta: Emolmec =         0.000000
siesta: Ekinion =         0.000000
siesta: Eharris =    -54689.457384
siesta: Etot    =    -54689.457383
siesta: FreeEng =    -54689.517112

siesta: Final energy (eV):
siesta:  Band Struct. =   -2565.348951
siesta:       Kinetic =   48580.221579
siesta:       Hartree =   77660.332693
siesta:       Eldau   =       0.000000
siesta:       Eso     =       0.000000
siesta:    Ext. field =       0.003573
siesta:   Exch.-corr. =  -20076.553795
siesta:  Ion-electron = -195381.902924
siesta:       Ion-ion =   34528.441491
siesta:       Ekinion =       0.000000
siesta:         Total =  -54689.457383
siesta:         Fermi =      -3.451938

siesta: Atomic forces (eV/Ang):
siesta:      1    0.000033   -0.064943    0.324074
siesta:      2    0.016230   -0.072403    0.337206
siesta:      3   -0.016232   -0.072397    0.337230
siesta:      4   -0.000002    0.063075    0.265120
siesta:      5    0.000355    0.075534    0.331743
siesta:      6   -0.000268    0.075492    0.331912
siesta:      7   -0.000007    0.051924    0.389090
siesta:      8    0.176133   -0.038830    0.245980
siesta:      9   -0.176091   -0.039000    0.246046
siesta:     10    0.053653    0.002769   -0.203897
siesta:     11   -0.053455    0.002898   -0.203909
siesta:     12   -0.000025   -0.004286   -0.205484
siesta:     13    0.010071    0.011187    0.116986
siesta:     14   -0.012259    0.011136    0.117374
siesta:     15    0.000555    0.009655   -0.170365
siesta:     16    0.010741   -0.022919   -0.222021
siesta:     17   -0.012431   -0.023168   -0.221497
siesta:     18    0.000105    0.010787   -0.290301
siesta:     19    0.000070    0.002073    0.000891
siesta:     20   -0.000091    0.011589   -0.004661
siesta:     21   -0.002614   -0.000260    0.000577
siesta:     22    0.001401   -0.000437    0.001777
siesta:     23    0.007508    0.002768    0.000543
siesta:     24   -0.008489   -0.000459   -0.001079
siesta:     25   -0.001030    0.006222    0.004636
siesta:     26   -0.000756    0.001715   -0.000133
siesta:     27   -0.000377    0.003806   -0.002165
siesta:     28    0.000105   -0.000014   -0.010594
siesta:     29    0.005581    0.014215    0.000841
siesta:     30   -0.003128    0.016223    0.008907
siesta:     31    0.000995    0.003621   -0.003200
siesta:     32   -0.000403    0.002418   -0.016855
siesta:     33   -0.002217   -0.002429    0.000807
siesta:     34    0.002138   -0.001744    0.000106
siesta:     35    0.000760   -0.006917    0.001812
siesta:     36   -0.001085   -0.006085    0.001791
siesta:     37   -0.009986    0.009096   -0.005486
siesta:     38    0.000035    0.003298   -0.001174
siesta: ----------------------------------------
siesta:    Tot   -0.014476    0.035213    1.502628

siesta: Stress tensor (static) (eV/Ang**3):
siesta:    -0.009016   -0.000002    0.000003
siesta:    -0.000003    0.001326   -0.000059
siesta:     0.000003   -0.000061   -0.010177

siesta: Cell volume =       1106.333084 Ang**3

siesta: Pressure (static):
siesta:                Solid            Molecule  Units
siesta:           0.00006486          0.00008177  Ry/Bohr**3
siesta:           0.00595544          0.00750823  eV/Ang**3
siesta:           9.54176369         12.02963942  kBar
(Free)E+ p_basis*V_orbitals  =      -54667.408782
(Free)Eharris+ p_basis*V_orbitals  =      -54667.408783

siesta: Electric dipole (a.u.)  =   -0.000000   -0.000000   -0.394984
siesta: Electric dipole (Debye) =   -0.000000   -0.000000   -1.003950
>> End of run:   7-MAY-2018  14:36:14
Job completed
